
                                 *****************
                                 * O   R   C   A *
                                 *****************

                                            #,                                       
                                            ###                                      
                                            ####                                     
                                            #####                                    
                                            ######                                   
                                           ########,                                 
                                     ,,################,,,,,                         
                               ,,#################################,,                 
                          ,,##########################################,,             
                       ,#########################################, ''#####,          
                    ,#############################################,,   '####,        
                  ,##################################################,,,,####,       
                ,###########''''           ''''###############################       
              ,#####''   ,,,,##########,,,,          '''####'''          '####       
            ,##' ,,,,###########################,,,                        '##       
           ' ,,###''''                  '''############,,,                           
         ,,##''                                '''############,,,,        ,,,,,,###''
      ,#''                                            '''#######################'''  
     '                                                          ''''####''''         
             ,#######,   #######,   ,#######,      ##                                
            ,#'     '#,  ##    ##  ,#'     '#,    #''#        ######   ,####,        
            ##       ##  ##   ,#'  ##            #'  '#       #        #'  '#        
            ##       ##  #######   ##           ,######,      #####,   #    #        
            '#,     ,#'  ##    ##  '#,     ,#' ,#      #,         ##   #,  ,#        
             '#######'   ##     ##  '#######'  #'      '#     #####' # '####'        



                  #######################################################
                  #                        -***-                        #
                  #          Department of theory and spectroscopy      #
                  #    Directorship and core code : Frank Neese         #
                  #        Max Planck Institute fuer Kohlenforschung    #
                  #                Kaiser Wilhelm Platz 1               #
                  #                 D-45470 Muelheim/Ruhr               #
                  #                      Germany                        #
                  #                                                     #
                  #                  All rights reserved                #
                  #                        -***-                        #
                  #######################################################


                         Program Version 5.0.4 -  RELEASE  -


 With contributions from (in alphabetic order):
   Daniel Aravena         : Magnetic Suceptibility
   Michael Atanasov       : Ab Initio Ligand Field Theory (pilot matlab implementation)
   Alexander A. Auer      : GIAO ZORA, VPT2 properties, NMR spectrum
   Ute Becker             : Parallelization
   Giovanni Bistoni       : ED, misc. LED, open-shell LED, HFLD
   Martin Brehm           : Molecular dynamics
   Dmytro Bykov           : SCF Hessian
   Vijay G. Chilkuri      : MRCI spin determinant printing, contributions to CSF-ICE
   Dipayan Datta          : RHF DLPNO-CCSD density
   Achintya Kumar Dutta   : EOM-CC, STEOM-CC
   Dmitry Ganyushin       : Spin-Orbit,Spin-Spin,Magnetic field MRCI
   Miquel Garcia          : C-PCM and meta-GGA Hessian, CC/C-PCM, Gaussian charge scheme
   Yang Guo               : DLPNO-NEVPT2, F12-NEVPT2, CIM, IAO-localization
   Andreas Hansen         : Spin unrestricted coupled pair/coupled cluster methods
   Benjamin Helmich-Paris : MC-RPA, TRAH-SCF, COSX integrals
   Lee Huntington         : MR-EOM, pCC
   Robert Izsak           : Overlap fitted RIJCOSX, COSX-SCS-MP3, EOM
   Marcus Kettner         : VPT2
   Christian Kollmar      : KDIIS, OOCD, Brueckner-CCSD(T), CCSD density, CASPT2, CASPT2-K
   Simone Kossmann        : Meta GGA functionals, TD-DFT gradient, OOMP2, MP2 Hessian
   Martin Krupicka        : Initial AUTO-CI
   Lucas Lang             : DCDCAS
   Marvin Lechner         : AUTO-CI (C++ implementation), FIC-MRCC
   Dagmar Lenk            : GEPOL surface, SMD
   Dimitrios Liakos       : Extrapolation schemes; Compound Job, initial MDCI parallelization
   Dimitrios Manganas     : Further ROCIS development; embedding schemes
   Dimitrios Pantazis     : SARC Basis sets
   Anastasios Papadopoulos: AUTO-CI, single reference methods and gradients
   Taras Petrenko         : DFT Hessian,TD-DFT gradient, ASA, ECA, R-Raman, ABS, FL, XAS/XES, NRVS
   Peter Pinski           : DLPNO-MP2, DLPNO-MP2 Gradient
   Christoph Reimann      : Effective Core Potentials
   Marius Retegan         : Local ZFS, SOC
   Christoph Riplinger    : Optimizer, TS searches, QM/MM, DLPNO-CCSD(T), (RO)-DLPNO pert. Triples
   Tobias Risthaus        : Range-separated hybrids, TD-DFT gradient, RPA, STAB
   Michael Roemelt        : Original ROCIS implementation
   Masaaki Saitow         : Open-shell DLPNO-CCSD energy and density
   Barbara Sandhoefer     : DKH picture change effects
   Avijit Sen             : IP-ROCIS
   Kantharuban Sivalingam : CASSCF convergence, NEVPT2, FIC-MRCI
   Bernardo de Souza      : ESD, SOC TD-DFT
   Georgi Stoychev        : AutoAux, RI-MP2 NMR, DLPNO-MP2 response
   Willem Van den Heuvel  : Paramagnetic NMR
   Boris Wezisla          : Elementary symmetry handling
   Frank Wennmohs         : Technical directorship


 We gratefully acknowledge several colleagues who have allowed us to
 interface, adapt or use parts of their codes:
   Stefan Grimme, W. Hujo, H. Kruse, P. Pracht,  : VdW corrections, initial TS optimization,
                  C. Bannwarth, S. Ehlert          DFT functionals, gCP, sTDA/sTD-DF
   Ed Valeev, F. Pavosevic, A. Kumar             : LibInt (2-el integral package), F12 methods
   Garnet Chan, S. Sharma, J. Yang, R. Olivares  : DMRG
   Ulf Ekstrom                                   : XCFun DFT Library
   Mihaly Kallay                                 : mrcc  (arbitrary order and MRCC methods)
   Jiri Pittner, Ondrej Demel                    : Mk-CCSD
   Frank Weinhold                                : gennbo (NPA and NBO analysis)
   Christopher J. Cramer and Donald G. Truhlar   : smd solvation model
   Lars Goerigk                                  : TD-DFT with DH, B97 family of functionals
   V. Asgeirsson, H. Jonsson                     : NEB implementation
   FAccTs GmbH                                   : IRC, NEB, NEB-TS, DLPNO-Multilevel, CI-OPT
                                                   MM, QMMM, 2- and 3-layer-ONIOM, Crystal-QMMM,
                                                   LR-CPCM, SF, NACMEs, symmetry and pop. for TD-DFT,
                                                   nearIR, NL-DFT gradient (VV10), updates on ESD,
                                                   ML-optimized integration grids
   S Lehtola, MJT Oliveira, MAL Marques          : LibXC Library
   Liviu Ungur et al                             : ANISO software


 Your calculation uses the libint2 library for the computation of 2-el integrals
 For citations please refer to: http://libint.valeyev.net

 Your ORCA version has been built with support for libXC version: 5.1.0
 For citations please refer to: https://tddft.org/programs/libxc/

 This ORCA versions uses:
   CBLAS   interface :  Fast vector & matrix operations
   LAPACKE interface :  Fast linear algebra routines
   SCALAPACK package :  Parallel linear algebra routines
   Shared memory     :  Shared parallel matrices
   BLAS/LAPACK       :  OpenBLAS 0.3.15  USE64BITINT DYNAMIC_ARCH NO_AFFINITY Zen SINGLE_THREADED
        Core in use  :  Zen
   Copyright (c) 2011-2014, The OpenBLAS Project


Your calculation utilizes the atom-pairwise dispersion correction
with the Becke-Johnson damping scheme (D3BJ)
Cite in your paper:
S.Grimme, S.Ehrlich, L.Goerigk, J Comput Chem, (2011), 32, 1456–1465 
S.Grimme, J.Antony, S.Ehrlich and H.Krieg, J.Chem.Phys., 132, (2010), 154104 
   

================================================================================

----- Orbital basis set information -----
Your calculation utilizes the basis: 6-31++G(d,p)
   H-He, Li-Ne : W. J. Hehre, R. Ditchfield and J.A. Pople, J. Chem. Phys. 56, 2257 (1972).
                 Note: He and Ne are unpublished basis sets taken from the Gaussian program.
                 Note: Li and B from J. D. Dill and J. A. Pople, J. Chem. Phys. 62, 2921 (1975).
   Na - Ar     : M. M. Francl, W. J. Pietro, W. J. Hehre, J. S. Binkley, M. S. Gordon, 
                 D. J. DeFrees and J. A. Pople, J. Chem. Phys. 77, 3654 (1982).
   K - Zn      : V. A. Rassolov, J. A. Pople, M. A. Ratner, and T. L. Windus, J. Chem. Phys. 109, 1223 (1998).
   Additional Pol./Diff. from the 6-311G equivalent.

----- AuxJ basis set information -----
Your calculation utilizes the auxiliary basis: def2/J
   F. Weigend, Phys. Chem. Chem. Phys. 8, 1057 (2006).

================================================================================
                                        WARNINGS
                       Please study these warnings very carefully!
================================================================================


INFO   : the flag for use of the SHARK integral package has been found!

================================================================================
                                       INPUT FILE
================================================================================
NAME = 2picolinate_water_freq_d3.inp
|  1> # avogadro generated ORCA file
|  2> # C36H26N6O13Cr2 | Frequencies | B3LYP/6-31G(d)
|  3> # 
|  4> ! B3LYP D3BJ 6-31++G(d,p) FREQ
|  5> 
|  6> %maxcore 1024
|  7> 
|  8> %pal
|  9>    nprocs 8
| 10> end
| 11> 
| 12> * xyz 0 1
| 13>    Cr     6.154459   -0.083930    1.251714
| 14>    O      7.298156    0.168935   -0.373602
| 15>    O      4.847429   -0.578275    2.704176
| 16>    O      7.509943    0.375475    2.529305
| 17>    O      7.377257    0.178110   -2.621723
| 18>    O      4.404102   -2.095465    4.301449
| 19>    O      8.497304    2.125059    3.693458
| 20>    N      4.758464   -0.435396   -0.309524
| 21>    N      6.586475   -2.128359    1.499489
| 22>    N      5.742718    1.979733    1.524280
| 23>    C      5.296810   -0.314998   -1.545181
| 24>    C      5.970520   -2.659967    2.581613
| 25>    C      6.419132    2.497679    2.574521
| 26>    C      6.768471    0.038442   -1.557689
| 27>    C      4.995327   -1.734077    3.273330
| 28>    C      7.257170    1.465664    3.314073
| 29>    C      3.460675   -0.750757   -0.172669
| 30>    C      7.471208   -2.860227    0.806842
| 31>    C      4.927446    2.768978    0.800556
| 32>    C      4.541892   -0.505195   -2.695953
| 33>    C      6.229877   -3.956213    3.008512
| 34>    C      6.302689    3.835740    2.932741
| 35>    C      2.641089   -0.953169   -1.282304
| 36>    C      7.777664   -4.170656    1.174331
| 37>    C      4.767041    4.118955    1.095567
| 38>    C      3.188841   -0.829244   -2.560414
| 39>    C      7.150297   -4.725343    2.290259
| 40>    C      5.467344    4.660407    2.176316
| 41>    H      3.090171   -0.833901    0.843187
| 42>    H      7.939366   -2.377650   -0.043953
| 43>    H      4.406003    2.300704   -0.026835
| 44>    H      5.012933   -0.399210   -3.666211
| 45>    H      5.719299   -4.341421    3.883315
| 46>    H      6.858628    4.216765    3.781871
| 47>    H      1.596054   -1.204206   -1.138388
| 48>    H      8.497717   -4.735209    0.592407
| 49>    H      4.106806    4.726965    0.487398
| 50>    H      2.571826   -0.982611   -3.440133
| 51>    H      7.375140   -5.741049    2.599887
| 52>    H      5.363366    5.711174    2.428186
| 53>    O      6.146041   -2.174238    6.616469
| 54>    H      7.066092   -2.248103    6.300024
| 55>    H      5.587286   -2.190756    5.818567
| 56>    Cr    12.501552   -1.097006    7.182388
| 57>    O     11.894824   -0.449469    8.969286
| 58>    O     13.401596   -1.711627    5.512205
| 59>    O     10.938006   -2.308634    6.942601
| 60>    O     12.306286    0.954660   10.679250
| 61>    O     14.834995   -3.194221    4.612161
| 62>    O      8.905601   -2.552700    6.022543
| 63>    N     13.961025    0.363920    7.596848
| 64>    N     13.739378   -2.622017    7.939502
| 65>    N     11.213127    0.151090    6.100506
| 66>    C     13.783600    0.968584    8.795762
| 67>    C     14.454005   -3.249098    6.975218
| 68>    C     10.060920   -0.467111    5.745629
| 69>    C     12.579071    0.484712    9.573096
| 70>    C     14.240863   -2.709756    5.577185
| 71>    C      9.918313   -1.882896    6.259824
| 72>    C     14.998848    0.711641    6.818473
| 73>    C     13.852533   -3.013033    9.218495
| 74>    C     11.431685    1.407532    5.667745
| 75>    C     14.652396    1.949145    9.256546
| 76>    C     15.314779   -4.299042    7.268417
| 77>    C      9.098836    0.127352    4.949946
| 78>    C     15.909516    1.688808    7.216478
| 79>    C     14.696040   -4.061102    9.585509
| 80>    C     10.523307    2.081024    4.867595
| 81>    C     15.734852    2.315366    8.451303
| 82>    C     15.437851   -4.711453    8.598309
| 83>    C      9.335541    1.435631    4.488275
| 84>    H     15.084779    0.195385    5.869028
| 85>    H     13.252245   -2.476272    9.944628
| 86>    H     12.360267    1.875969    5.972839
| 87>    H     14.474781    2.406343   10.222968
| 88>    H     15.868708   -4.772791    6.466345
| 89>    H      8.220802   -0.439006    4.674601
| 90>    H     16.736095    1.946622    6.563775
| 91>    H     14.764478   -4.353225   10.627511
| 92>    H     10.728894    3.090450    4.530334
| 93>    H     16.431214    3.078723    8.783549
| 94>    H     16.102929   -5.528859    8.858351
| 95>    H      6.749185    1.198268    4.256821
| 96> *
| 97> 
| 98> 
| 99> 
|100>                          ****END OF INPUT****
================================================================================

                       ****************************
                       * Single Point Calculation *
                       ****************************

---------------------------------
CARTESIAN COORDINATES (ANGSTROEM)
---------------------------------
  Cr     6.154459   -0.083930    1.251714
  O      7.298156    0.168935   -0.373602
  O      4.847429   -0.578275    2.704176
  O      7.509943    0.375475    2.529305
  O      7.377257    0.178110   -2.621723
  O      4.404102   -2.095465    4.301449
  O      8.497304    2.125059    3.693458
  N      4.758464   -0.435396   -0.309524
  N      6.586475   -2.128359    1.499489
  N      5.742718    1.979733    1.524280
  C      5.296810   -0.314998   -1.545181
  C      5.970520   -2.659967    2.581613
  C      6.419132    2.497679    2.574521
  C      6.768471    0.038442   -1.557689
  C      4.995327   -1.734077    3.273330
  C      7.257170    1.465664    3.314073
  C      3.460675   -0.750757   -0.172669
  C      7.471208   -2.860227    0.806842
  C      4.927446    2.768978    0.800556
  C      4.541892   -0.505195   -2.695953
  C      6.229877   -3.956213    3.008512
  C      6.302689    3.835740    2.932741
  C      2.641089   -0.953169   -1.282304
  C      7.777664   -4.170656    1.174331
  C      4.767041    4.118955    1.095567
  C      3.188841   -0.829244   -2.560414
  C      7.150297   -4.725343    2.290259
  C      5.467344    4.660407    2.176316
  H      3.090171   -0.833901    0.843187
  H      7.939366   -2.377650   -0.043953
  H      4.406003    2.300704   -0.026835
  H      5.012933   -0.399210   -3.666211
  H      5.719299   -4.341421    3.883315
  H      6.858628    4.216765    3.781871
  H      1.596054   -1.204206   -1.138388
  H      8.497717   -4.735209    0.592407
  H      4.106806    4.726965    0.487398
  H      2.571826   -0.982611   -3.440133
  H      7.375140   -5.741049    2.599887
  H      5.363366    5.711174    2.428186
  O      6.146041   -2.174238    6.616469
  H      7.066092   -2.248103    6.300024
  H      5.587286   -2.190756    5.818567
  Cr    12.501552   -1.097006    7.182388
  O     11.894824   -0.449469    8.969286
  O     13.401596   -1.711627    5.512205
  O     10.938006   -2.308634    6.942601
  O     12.306286    0.954660   10.679250
  O     14.834995   -3.194221    4.612161
  O      8.905601   -2.552700    6.022543
  N     13.961025    0.363920    7.596848
  N     13.739378   -2.622017    7.939502
  N     11.213127    0.151090    6.100506
  C     13.783600    0.968584    8.795762
  C     14.454005   -3.249098    6.975218
  C     10.060920   -0.467111    5.745629
  C     12.579071    0.484712    9.573096
  C     14.240863   -2.709756    5.577185
  C      9.918313   -1.882896    6.259824
  C     14.998848    0.711641    6.818473
  C     13.852533   -3.013033    9.218495
  C     11.431685    1.407532    5.667745
  C     14.652396    1.949145    9.256546
  C     15.314779   -4.299042    7.268417
  C      9.098836    0.127352    4.949946
  C     15.909516    1.688808    7.216478
  C     14.696040   -4.061102    9.585509
  C     10.523307    2.081024    4.867595
  C     15.734852    2.315366    8.451303
  C     15.437851   -4.711453    8.598309
  C      9.335541    1.435631    4.488275
  H     15.084779    0.195385    5.869028
  H     13.252245   -2.476272    9.944628
  H     12.360267    1.875969    5.972839
  H     14.474781    2.406343   10.222968
  H     15.868708   -4.772791    6.466345
  H      8.220802   -0.439006    4.674601
  H     16.736095    1.946622    6.563775
  H     14.764478   -4.353225   10.627511
  H     10.728894    3.090450    4.530334
  H     16.431214    3.078723    8.783549
  H     16.102929   -5.528859    8.858351
  H      6.749185    1.198268    4.256821

----------------------------
CARTESIAN COORDINATES (A.U.)
----------------------------
  NO LB      ZA    FRAG     MASS         X           Y           Z
   0 Cr   24.0000    0    52.000   11.630242   -0.158605    2.365397
   1 O     8.0000    0    15.999   13.791516    0.319241   -0.706005
   2 O     8.0000    0    15.999    9.160313   -1.092781    5.110152
   3 O     8.0000    0    15.999   14.191736    0.709545    4.779694
   4 O     8.0000    0    15.999   13.940995    0.336579   -4.954338
   5 O     8.0000    0    15.999    8.322547   -3.959855    8.128561
   6 O     8.0000    0    15.999   16.057577    4.015780    6.979624
   7 N     7.0000    0    14.007    8.992194   -0.822779   -0.584916
   8 N     7.0000    0    14.007   12.446634   -4.022016    2.833624
   9 N     7.0000    0    14.007   10.852164    3.741153    2.880472
  10 C     6.0000    0    12.011   10.009520   -0.595260   -2.919969
  11 C     6.0000    0    12.011   11.282648   -5.026609    4.878542
  12 C     6.0000    0    12.011   12.130401    4.719929    4.865140
  13 C     6.0000    0    12.011   12.790557    0.072645   -2.943606
  14 C     6.0000    0    12.011    9.439800   -3.276931    6.185697
  15 C     6.0000    0    12.011   13.714064    2.769704    6.262690
  16 C     6.0000    0    12.011    6.539728   -1.418725   -0.326297
  17 C     6.0000    0    12.011   14.118537   -5.405046    1.524710
  18 C     6.0000    0    12.011    9.311523    5.232610    1.512832
  19 C     6.0000    0    12.011    8.582932   -0.954680   -5.094613
  20 C     6.0000    0    12.011   11.772761   -7.476159    5.685264
  21 C     6.0000    0    12.011   11.910356    7.248498    5.542077
  22 C     6.0000    0    12.011    4.990935   -1.801228   -2.423203
  23 C     6.0000    0    12.011   14.697655   -7.881398    2.219164
  24 C     6.0000    0    12.011    9.008402    7.783697    2.070322
  25 C     6.0000    0    12.011    6.026036   -1.567044   -4.838481
  26 C     6.0000    0    12.011   13.512103   -8.929604    4.327962
  27 C     6.0000    0    12.011   10.331783    8.806893    4.112641
  28 H     1.0000    0     1.008    5.839577   -1.575845    1.593393
  29 H     1.0000    0     1.008   15.003227   -4.493107   -0.083059
  30 H     1.0000    0     1.008    8.326139    4.347700   -0.050711
  31 H     1.0000    0     1.008    9.473070   -0.754398   -6.928135
  32 H     1.0000    0     1.008   10.807909   -8.204097    7.338402
  33 H     1.0000    0     1.008   12.960929    7.968531    7.146700
  34 H     1.0000    0     1.008    3.016105   -2.275620   -2.151242
  35 H     1.0000    0     1.008   16.058358   -8.948248    1.119487
  36 H     1.0000    0     1.008    7.760739    8.932669    0.921049
  37 H     1.0000    0     1.008    4.860047   -1.856866   -6.500909
  38 H     1.0000    0     1.008   13.936995  -10.849010    4.913074
  39 H     1.0000    0     1.008   10.135293   10.792555    4.588607
  40 O     8.0000    0    15.999   11.614334   -4.108714   12.503314
  41 H     1.0000    0     1.008   13.352979   -4.248299   11.905320
  42 H     1.0000    0     1.008   10.558440   -4.139929   10.995498
  43 Cr   24.0000    0    52.000   23.624510   -2.073041   13.572746
  44 O     8.0000    0    15.999   22.477960   -0.849373   16.949494
  45 O     8.0000    0    15.999   25.325346   -3.234506   10.416558
  46 O     8.0000    0    15.999   20.669836   -4.362686   13.119615
  47 O     8.0000    0    15.999   23.255510    1.804046   20.180858
  48 O     8.0000    0    15.999   28.034078   -6.036203    8.715721
  49 O     8.0000    0    15.999   16.829147   -4.823904   11.380957
  50 N     7.0000    0    14.007   26.382514    0.687709   14.355962
  51 N     7.0000    0    14.007   25.963662   -4.954894   15.003484
  52 N     7.0000    0    14.007   21.189739    0.285519   11.528286
  53 C     6.0000    0    12.011   26.047229    1.830358   16.621581
  54 C     6.0000    0    12.011   27.314111   -6.139905   13.181252
  55 C     6.0000    0    12.011   19.012383   -0.882712   10.857665
  56 C     6.0000    0    12.011   23.770999    0.915973   18.090530
  57 C     6.0000    0    12.011   26.911331   -5.120697   10.539352
  58 C     6.0000    0    12.011   18.742895   -3.558158   11.829353
  59 C     6.0000    0    12.011   28.343715    1.344807   12.885047
  60 C     6.0000    0    12.011   26.177494   -5.693807   17.420431
  61 C     6.0000    0    12.011   21.602754    2.659850   10.710486
  62 C     6.0000    0    12.011   27.689016    3.683350   17.492337
  63 C     6.0000    0    12.011   28.940738   -8.124012   13.735318
  64 C     6.0000    0    12.011   17.194308    0.240660    9.354042
  65 C     6.0000    0    12.011   30.064628    3.191385   13.637167
  66 C     6.0000    0    12.011   27.771491   -7.674371   18.113987
  67 C     6.0000    0    12.011   19.886168    3.932565    9.198421
  68 C     6.0000    0    12.011   29.734561    4.375408   15.970648
  69 C     6.0000    0    12.011   29.173310   -8.903356   16.248449
  70 C     6.0000    0    12.011   17.641616    2.712949    8.481611
  71 H     1.0000    0     1.008   28.506101    0.369224   11.090856
  72 H     1.0000    0     1.008   25.043114   -4.679476   18.792623
  73 H     1.0000    0     1.008   23.357520    3.545068   11.287030
  74 H     1.0000    0     1.008   27.353372    4.547329   19.318610
  75 H     1.0000    0     1.008   29.987512   -9.019268   12.219621
  76 H     1.0000    0     1.008   15.535064   -0.829601    8.833716
  77 H     1.0000    0     1.008   31.626636    3.678582   12.403737
  78 H     1.0000    0     1.008   27.900820   -8.226403   20.083085
  79 H     1.0000    0     1.008   20.274671    5.840104    8.561091
  80 H     1.0000    0     1.008   31.050495    5.817943   16.598502
  81 H     1.0000    0     1.008   30.430126  -10.448029   16.739857
  82 H     1.0000    0     1.008   12.754111    2.264398    8.044226

--------------------------------
INTERNAL COORDINATES (ANGSTROEM)
--------------------------------
 Cr     0   0   0     0.000000000000     0.00000000     0.00000000
 O      1   0   0     2.003406008749     0.00000000     0.00000000
 O      1   2   0     2.015527291150   170.33098318     0.00000000
 O      1   2   3     1.918496440331    96.12443455   148.36485877
 O      2   1   4     2.249530879865   146.23835067   184.31732686
 O      3   1   4     2.247150498199   143.68355932   289.96731549
 O      4   1   2     2.321891066520   144.56475329    88.20730473
 N      1   2   5     2.123627670244    78.44738969     0.77938518
 N      1   2   5     2.104214868050    95.79411492    93.16146817
 N      1   2   5     2.121916080576    95.29203861   264.34263120
 C      8   1   2     1.353203722936   113.27028631   359.68362022
 C      9   1   2     1.353883295955   112.47047643   178.72897282
 C     10   1   2     1.352335060698   112.03595585   253.53792083
 C      5   2   1     1.233813558515    28.39791199   359.44357751
 C      6   3   1     1.239829409770    28.32151859   343.21364854
 C      4   1   2     1.366845660297   116.27466889   118.35729740
 C      8   1   2     1.342549120095   126.82564158   179.59529055
 C      9   1   2     1.340948588620   127.22261364     5.99712659
 C     10   1   2     1.345864975466   128.22797623    73.54802892
 C     11   8   1     1.389371182052   121.86895319   180.11286381
 C     12   9   1     1.389158918974   121.80800346   186.86401557
 C     13  10   1     1.390067545255   121.79662740   179.76396519
 C     17   8   1     1.394267428568   121.41290499   179.75130955
 C     18   9   1     1.395058281613   121.43586003   172.29307166
 C     19  10   1     1.391114357152   121.66095928   180.59778338
 C     23  17   8     1.396049723767   119.01871587     0.26715451
 C     24  18   9     1.395192575182   119.03660896   359.78693216
 C     22  13  10     1.396443951807   118.61831983   359.64864689
 H     17   8   1     1.084504288368   116.34256805     0.00000000
 H     18   9   1     1.084391352750   116.56565230   352.83359066
 H     19  10   1     1.084324309515   116.63946409     0.30011238
 H     20  11   8     1.083749523861   119.47085519   180.01076784
 H     21  12   9     1.083676790449   119.45893781   179.64416905
 H     22  13  10     1.084098694421   119.81532661   179.89634168
 H     23  17   8     1.084356740953   119.63628123   180.16618191
 H     24  18   9     1.084357853476   119.57446428   179.98802181
 H     25  19  10     1.084184462112   119.70109460   179.60327414
 H     26  23  17     1.085419027784   120.42665858   179.95627611
 H     27  24  18     1.085395113067   120.46835274   180.31038671
 H     28  22  13     1.085523472649   120.21554427   180.49051493
 O      6   3   1     2.898253657921   117.87456916    69.40053670
 H     41   6   3     0.975749618935   108.04312312   307.37786112
 H     41   6   3     0.974231797856     3.19753347   259.17898944
 Cr    42  41   6     5.625639158665   147.63814647   149.56408605
 O     44  42  41     1.995100873329    85.01249330     7.76430544
 O     44  42  41     1.994329318108   103.98285546   186.19995219
 O     44  42  41     1.992540165183    25.64786415   117.39768815
 O     45  44  42     2.250523518513   145.83410742   207.68400304
 O     46  44  42     2.250065968805   145.64527391   246.48696705
 O     42  41   6     1.885091085028   168.54661480   205.96485035
 N     44  42  41     2.106215398957   147.38405166   307.19768363
 N     44  42  41     2.105016238748   118.44619602   101.06370936
 N     44  42  41     2.094815330230    56.40246862   268.73341860
 C     51  44  42     1.354434554682   113.14568792    62.68035707
 C     52  44  42     1.354166150199   112.93496676    98.36646116
 C     53  44  42     1.354876796015   112.73519518   345.05881218
 C     48  45  44     1.232412045805    28.42858470     0.83695497
 C     49  46  44     1.232465208525    28.43997932   357.59418735
 C     50  42  41     1.237143995791   133.08482416   270.31752113
 C     51  44  42     1.343076361863   126.94029195   241.96793574
 C     52  44  42     1.342207383503   127.11089968   279.53029145
 C     53  44  42     1.346735379297   128.46228765   169.59425159
 C     54  51  44     1.388750610798   121.80054462   179.21919697
 C     55  52  44     1.388985217997   121.78728351   181.01460974
 C     56  53  44     1.382788240445   123.10969900   184.52492688
 C     60  51  44     1.393764518180   121.39289455   180.80683142
 C     61  52  44     1.394507785567   121.38148467   178.72577836
 C     62  53  44     1.385273289805   122.19317439   174.80099361
 C     66  60  51     1.395663004054   119.05367278     0.03800430
 C     67  61  52     1.395637425309   119.04947729     0.14045264
 C      7   4   1     1.345245813538   100.08059439   174.67804096
 H     60  51  44     1.084135693685   116.45577494     1.01992506
 H     61  52  44     1.084309544251   116.56728791   359.03466347
 H     62  53  44     1.083872733548   116.85889135   354.94021812
 H     63  54  51     1.083765925610   119.42016359   180.11029094
 H     64  55  52     1.083787315494   119.40269902   180.04959320
 H     65  56  53     1.080518374830   119.12210231   177.63613682
 H     66  60  51     1.084307201879   119.53062294   180.05278575
 H     67  61  52     1.084337482049   119.57491906   180.03808534
 H     68  62  53     1.083951957499   120.53741884   180.31055262
 H     69  66  60     1.085366919069   120.41668827   179.94940126
 H     70  67  61     1.085404605059   120.47430288   179.88522402
 H     16   4   1     1.103776776593   112.47449821    91.13300063

---------------------------
INTERNAL COORDINATES (A.U.)
---------------------------
 Cr     0   0   0     0.000000000000     0.00000000     0.00000000
 O      1   0   0     3.785888691587     0.00000000     0.00000000
 O      1   2   0     3.808794595717   170.33098318     0.00000000
 O      1   2   3     3.625432861128    96.12443455   148.36485877
 O      2   1   4     4.250997292744   146.23835067   184.31732686
 O      3   1   4     4.246499023302   143.68355932   289.96731549
 O      4   1   2     4.387738228521   144.56475329    88.20730473
 N      1   2   5     4.013074707178    78.44738969     0.77938518
 N      1   2   5     3.976389827539    95.79411492    93.16146817
 N      1   2   5     4.009840271452    95.29203861   264.34263120
 C      8   1   2     2.557184439752   113.27028631   359.68362022
 C      9   1   2     2.558468646645   112.47047643   178.72897282
 C     10   1   2     2.555542906019   112.03595585   253.53792083
 C      5   2   1     2.331569725913    28.39791199   359.44357751
 C      6   3   1     2.342938037246    28.32151859   343.21364854
 C      4   1   2     2.582963965301   116.27466889   118.35729740
 C      8   1   2     2.537050158316   126.82564158   179.59529055
 C      9   1   2     2.534025592160   127.22261364     5.99712659
 C     10   1   2     2.543316216867   128.22797623    73.54802892
 C     11   8   1     2.625531032441   121.86895319   180.11286381
 C     12   9   1     2.625129913356   121.80800346   186.86401557
 C     13  10   1     2.626846968183   121.79662740   179.76396519
 C     17   8   1     2.634783597440   121.41290499   179.75130955
 C     18   9   1     2.636278093108   121.43586003   172.29307166
 C     19  10   1     2.628825155984   121.66095928   180.59778338
 C     23  17   8     2.638151647255   119.01871587     0.26715451
 C     24  18   9     2.636531871174   119.03660896   359.78693216
 C     22  13  10     2.638896630286   118.61831983   359.64864689
 H     17   8   1     2.049416096078   116.34256805     0.00000000
 H     18   9   1     2.049202678689   116.56565230   352.83359066
 H     19  10   1     2.049075985337   116.63946409     0.30011238
 H     20  11   8     2.047989797866   119.47085519   180.01076784
 H     21  12   9     2.047852351635   119.45893781   179.64416905
 H     22  13  10     2.048649634598   119.81532661   179.89634168
 H     23  17   8     2.049137271872   119.63628123   180.16618191
 H     24  18   9     2.049139374235   119.57446428   179.98802181
 H     25  19  10     2.048811712045   119.70109460   179.60327414
 H     26  23  17     2.051144703058   120.42665858   179.95627611
 H     27  24  18     2.051099510792   120.46835274   180.31038671
 H     28  22  13     2.051342075251   120.21554427   180.49051493
 O      6   3   1     5.476905680105   117.87456916    69.40053670
 H     41   6   3     1.843899555064   108.04312312   307.37786112
 H     41   6   3     1.841031288905     3.19753347   259.17898944
 Cr    42  41   6    10.630917338140   147.63814647   149.56408605
 O     44  42  41     3.770194260138    85.01249330     7.76430544
 O     44  42  41     3.768736232074   103.98285546   186.19995219
 O     44  42  41     3.765355223035    25.64786415   117.39768815
 O     45  44  42     4.252873107939   145.83410742   207.68400304
 O     46  44  42     4.252008464297   145.64527391   246.48696705
 O     42  41   6     3.562305888199   168.54661480   205.96485035
 N     44  42  41     3.980170283077   147.38405166   307.19768363
 N     44  42  41     3.977904198691   118.44619602   101.06370936
 N     44  42  41     3.958627275274    56.40246862   268.73341860
 C     51  44  42     2.559510374669   113.14568792    62.68035707
 C     52  44  42     2.559003163703   112.93496676    98.36646116
 C     53  44  42     2.560346089672   112.73519518   345.05881218
 C     48  45  44     2.328921250717    28.42858470     0.83695497
 C     49  46  44     2.329021713699    28.43997932   357.59418735
 C     50  42  41     2.337863340269   133.08482416   270.31752113
 C     51  44  42     2.538046500864   126.94029195   241.96793574
 C     52  44  42     2.536404369748   127.11089968   279.53029145
 C     53  44  42     2.544961041733   128.46228765   169.59425159
 C     54  51  44     2.624358322725   121.80054462   179.21919697
 C     55  52  44     2.624801666078   121.78728351   181.01460974
 C     56  53  44     2.613091075649   123.10969900   184.52492688
 C     60  51  44     2.633833234537   121.39289455   180.80683142
 C     61  52  44     2.635237806342   121.38148467   178.72577836
 C     62  53  44     2.617787138368   122.19317439   174.80099361
 C     66  60  51     2.637420852908   119.05367278     0.03800430
 C     67  61  52     2.637372516084   119.04947729     0.14045264
 C      7   4   1     2.542146170391   100.08059439   174.67804096
 H     60  51  44     2.048719553074   116.45577494     1.01992506
 H     61  52  44     2.049048083032   116.56728791   359.03466347
 H     62  53  44     2.048222630430   116.85889135   354.94021812
 H     63  54  51     2.048020792678   119.42016359   180.11029094
 H     64  55  52     2.048061213702   119.40269902   180.04959320
 H     65  56  53     2.041883811098   119.12210231   177.63613682
 H     66  60  51     2.049043656589   119.53062294   180.05278575
 H     67  61  52     2.049100877819   119.57491906   180.03808534
 H     68  62  53     2.048372342001   120.53741884   180.31055262
 H     69  66  60     2.051046231858   120.41668827   179.94940126
 H     70  67  61     2.051117448059   120.47430288   179.88522402
 H     16   4   1     2.085835820742   112.47449821    91.13300063

---------------------
BASIS SET INFORMATION
---------------------
There are 5 groups of distinct atoms

 Group   1 Type Cr  : 23s18p5d1f contracted to 6s6p3d1f pattern {666311/663111/311/1}
 Group   2 Type O   : 11s5p1d contracted to 4s3p1d pattern {6311/311/1}
 Group   3 Type N   : 11s5p1d contracted to 4s3p1d pattern {6311/311/1}
 Group   4 Type C   : 11s5p1d contracted to 4s3p1d pattern {6311/311/1}
 Group   5 Type H   : 5s1p contracted to 3s1p pattern {311/1}

Atom   0Cr   basis set group =>   1
Atom   1O    basis set group =>   2
Atom   2O    basis set group =>   2
Atom   3O    basis set group =>   2
Atom   4O    basis set group =>   2
Atom   5O    basis set group =>   2
Atom   6O    basis set group =>   2
Atom   7N    basis set group =>   3
Atom   8N    basis set group =>   3
Atom   9N    basis set group =>   3
Atom  10C    basis set group =>   4
Atom  11C    basis set group =>   4
Atom  12C    basis set group =>   4
Atom  13C    basis set group =>   4
Atom  14C    basis set group =>   4
Atom  15C    basis set group =>   4
Atom  16C    basis set group =>   4
Atom  17C    basis set group =>   4
Atom  18C    basis set group =>   4
Atom  19C    basis set group =>   4
Atom  20C    basis set group =>   4
Atom  21C    basis set group =>   4
Atom  22C    basis set group =>   4
Atom  23C    basis set group =>   4
Atom  24C    basis set group =>   4
Atom  25C    basis set group =>   4
Atom  26C    basis set group =>   4
Atom  27C    basis set group =>   4
Atom  28H    basis set group =>   5
Atom  29H    basis set group =>   5
Atom  30H    basis set group =>   5
Atom  31H    basis set group =>   5
Atom  32H    basis set group =>   5
Atom  33H    basis set group =>   5
Atom  34H    basis set group =>   5
Atom  35H    basis set group =>   5
Atom  36H    basis set group =>   5
Atom  37H    basis set group =>   5
Atom  38H    basis set group =>   5
Atom  39H    basis set group =>   5
Atom  40O    basis set group =>   2
Atom  41H    basis set group =>   5
Atom  42H    basis set group =>   5
Atom  43Cr   basis set group =>   1
Atom  44O    basis set group =>   2
Atom  45O    basis set group =>   2
Atom  46O    basis set group =>   2
Atom  47O    basis set group =>   2
Atom  48O    basis set group =>   2
Atom  49O    basis set group =>   2
Atom  50N    basis set group =>   3
Atom  51N    basis set group =>   3
Atom  52N    basis set group =>   3
Atom  53C    basis set group =>   4
Atom  54C    basis set group =>   4
Atom  55C    basis set group =>   4
Atom  56C    basis set group =>   4
Atom  57C    basis set group =>   4
Atom  58C    basis set group =>   4
Atom  59C    basis set group =>   4
Atom  60C    basis set group =>   4
Atom  61C    basis set group =>   4
Atom  62C    basis set group =>   4
Atom  63C    basis set group =>   4
Atom  64C    basis set group =>   4
Atom  65C    basis set group =>   4
Atom  66C    basis set group =>   4
Atom  67C    basis set group =>   4
Atom  68C    basis set group =>   4
Atom  69C    basis set group =>   4
Atom  70C    basis set group =>   4
Atom  71H    basis set group =>   5
Atom  72H    basis set group =>   5
Atom  73H    basis set group =>   5
Atom  74H    basis set group =>   5
Atom  75H    basis set group =>   5
Atom  76H    basis set group =>   5
Atom  77H    basis set group =>   5
Atom  78H    basis set group =>   5
Atom  79H    basis set group =>   5
Atom  80H    basis set group =>   5
Atom  81H    basis set group =>   5
Atom  82H    basis set group =>   5
---------------------------------
AUXILIARY/J BASIS SET INFORMATION
---------------------------------
There are 5 groups of distinct atoms

 Group   1 Type Cr  : 19s5p5d3f3g contracted to 8s5p5d2f3g pattern {121111111/11111/11111/21/111}
 Group   2 Type O   : 12s5p4d2f1g contracted to 6s4p3d1f1g pattern {711111/2111/211/2/1}
 Group   3 Type N   : 12s5p4d2f1g contracted to 6s4p3d1f1g pattern {711111/2111/211/2/1}
 Group   4 Type C   : 12s5p4d2f1g contracted to 6s4p3d1f1g pattern {711111/2111/211/2/1}
 Group   5 Type H   : 5s2p1d contracted to 3s1p1d pattern {311/2/1}

Atom   0Cr   basis set group =>   1
Atom   1O    basis set group =>   2
Atom   2O    basis set group =>   2
Atom   3O    basis set group =>   2
Atom   4O    basis set group =>   2
Atom   5O    basis set group =>   2
Atom   6O    basis set group =>   2
Atom   7N    basis set group =>   3
Atom   8N    basis set group =>   3
Atom   9N    basis set group =>   3
Atom  10C    basis set group =>   4
Atom  11C    basis set group =>   4
Atom  12C    basis set group =>   4
Atom  13C    basis set group =>   4
Atom  14C    basis set group =>   4
Atom  15C    basis set group =>   4
Atom  16C    basis set group =>   4
Atom  17C    basis set group =>   4
Atom  18C    basis set group =>   4
Atom  19C    basis set group =>   4
Atom  20C    basis set group =>   4
Atom  21C    basis set group =>   4
Atom  22C    basis set group =>   4
Atom  23C    basis set group =>   4
Atom  24C    basis set group =>   4
Atom  25C    basis set group =>   4
Atom  26C    basis set group =>   4
Atom  27C    basis set group =>   4
Atom  28H    basis set group =>   5
Atom  29H    basis set group =>   5
Atom  30H    basis set group =>   5
Atom  31H    basis set group =>   5
Atom  32H    basis set group =>   5
Atom  33H    basis set group =>   5
Atom  34H    basis set group =>   5
Atom  35H    basis set group =>   5
Atom  36H    basis set group =>   5
Atom  37H    basis set group =>   5
Atom  38H    basis set group =>   5
Atom  39H    basis set group =>   5
Atom  40O    basis set group =>   2
Atom  41H    basis set group =>   5
Atom  42H    basis set group =>   5
Atom  43Cr   basis set group =>   1
Atom  44O    basis set group =>   2
Atom  45O    basis set group =>   2
Atom  46O    basis set group =>   2
Atom  47O    basis set group =>   2
Atom  48O    basis set group =>   2
Atom  49O    basis set group =>   2
Atom  50N    basis set group =>   3
Atom  51N    basis set group =>   3
Atom  52N    basis set group =>   3
Atom  53C    basis set group =>   4
Atom  54C    basis set group =>   4
Atom  55C    basis set group =>   4
Atom  56C    basis set group =>   4
Atom  57C    basis set group =>   4
Atom  58C    basis set group =>   4
Atom  59C    basis set group =>   4
Atom  60C    basis set group =>   4
Atom  61C    basis set group =>   4
Atom  62C    basis set group =>   4
Atom  63C    basis set group =>   4
Atom  64C    basis set group =>   4
Atom  65C    basis set group =>   4
Atom  66C    basis set group =>   4
Atom  67C    basis set group =>   4
Atom  68C    basis set group =>   4
Atom  69C    basis set group =>   4
Atom  70C    basis set group =>   4
Atom  71H    basis set group =>   5
Atom  72H    basis set group =>   5
Atom  73H    basis set group =>   5
Atom  74H    basis set group =>   5
Atom  75H    basis set group =>   5
Atom  76H    basis set group =>   5
Atom  77H    basis set group =>   5
Atom  78H    basis set group =>   5
Atom  79H    basis set group =>   5
Atom  80H    basis set group =>   5
Atom  81H    basis set group =>   5
Atom  82H    basis set group =>   5


           ************************************************************
           *        Program running with 8 parallel MPI-processes     *
           *              working on a common directory               *
           ************************************************************
------------------------------------------------------------------------------
                           ORCA GTO INTEGRAL CALCULATION
                           -- RI-GTO INTEGRALS CHOSEN --
------------------------------------------------------------------------------
------------------------------------------------------------------------------
                   ___                                                        
                  /   \      - P O W E R E D   B Y -                         
                 /     \                                                     
                 |  |  |   _    _      __       _____    __    __             
                 |  |  |  | |  | |    /  \     |  _  \  |  |  /  |          
                  \  \/   | |  | |   /    \    | | | |  |  | /  /          
                 / \  \   | |__| |  /  /\  \   | |_| |  |  |/  /          
                |  |  |   |  __  | /  /__\  \  |    /   |      \           
                |  |  |   | |  | | |   __   |  |    \   |  |\   \          
                \     /   | |  | | |  |  |  |  | |\  \  |  | \   \       
                 \___/    |_|  |_| |__|  |__|  |_| \__\ |__|  \__/        
                                                                              
                      - O R C A' S   B I G   F R I E N D -                    
                                      &                                       
                       - I N T E G R A L  F E E D E R -                       
                                                                              
 v1 FN, 2020, v2 2021                                                         
------------------------------------------------------------------------------


Reading SHARK input file 2picolinate_water_freq_d3.SHARKINP.tmp ... ok
----------------------
SHARK INTEGRAL PACKAGE
----------------------

Number of atoms                             ...     83
Number of basis functions                   ...   1238
Number of shells                            ...    576
Maximum angular momentum                    ...      3
Integral batch strategy                     ... SHARK/LIBINT Hybrid
RI-J (if used) integral strategy            ... SPLIT-RIJ (Revised 2003 algorithm where possible)
Printlevel                                  ...      1
Contraction scheme used                     ... SEGMENTED contraction
Coulomb Range Separation                    ... NOT USED
Exchange Range Separation                   ... NOT USED
Finite Nucleus Model                        ... NOT USED
Auxiliary Coulomb fitting basis             ... AVAILABLE
   # of basis functions in Aux-J            ...   3159
   # of shells in Aux-J                     ...   1001
   Maximum angular momentum in Aux-J        ...      4
Auxiliary J/K fitting basis                 ... NOT available
Auxiliary Correlation fitting basis         ... NOT available
Auxiliary 'external' fitting basis          ... NOT available
Integral threshold                          ...     1.000000e-10
Primitive cut-off                           ...     1.000000e-11
Primitive pair pre-selection threshold      ...     1.000000e-11

Calculating pre-screening integrals         ... done (  0.1 sec) Dimension = 576
Organizing shell pair data                  ... done (  0.4 sec)
Shell pair information
Total number of shell pairs                 ...    166176
Shell pairs after pre-screening             ...    102116
Total number of primitive shell pairs       ...    704106
Primitive shell pairs kept                  ...    245733
          la=0 lb=0:  29612 shell pairs
          la=1 lb=0:  40899 shell pairs
          la=1 lb=1:  14222 shell pairs
          la=2 lb=0:   9340 shell pairs
          la=2 lb=1:   6759 shell pairs
          la=2 lb=2:    603 shell pairs
          la=3 lb=0:    363 shell pairs
          la=3 lb=1:    258 shell pairs
          la=3 lb=2:     58 shell pairs
          la=3 lb=3:      2 shell pairs

Calculating one electron integrals          ... done (  0.1 sec)
Calculating RI/J V-Matrix + Cholesky decomp.... done (  0.3 sec)
Calculating Nuclear repulsion               ... done (  0.0 sec) ENN=   9365.186671059970 Eh

SHARK setup successfully completed in   1.3 seconds

Maximum memory used throughout the entire GTOINT-calculation: 153.2 MB


           ************************************************************
           *        Program running with 8 parallel MPI-processes     *
           *              working on a common directory               *
           ************************************************************
-------------------------------------------------------------------------------
                                 ORCA SCF
-------------------------------------------------------------------------------

------------
SCF SETTINGS
------------
Hamiltonian:
 Density Functional     Method          .... DFT(GTOs)
 Exchange Functional    Exchange        .... B88
   X-Alpha parameter    XAlpha          ....  0.666667
   Becke's b parameter  XBeta           ....  0.004200
 Correlation Functional Correlation     .... LYP
 LDA part of GGA corr.  LDAOpt          .... VWN-5
 Gradients option       PostSCFGGA      .... off
 Hybrid DFT is turned on
   Fraction HF Exchange ScalHFX         ....  0.200000
   Scaling of DF-GGA-X  ScalDFX         ....  0.720000
   Scaling of DF-GGA-C  ScalDFC         ....  0.810000
   Scaling of DF-LDA-C  ScalLDAC        ....  1.000000
   Perturbative correction              ....  0.000000
   Density functional embedding theory  .... OFF
   NL short-range parameter             ....  4.800000
 RI-approximation to the Coulomb term is turned on
   Number of AuxJ basis functions       .... 3159
   RIJ-COSX (HFX calculated with COS-X)).... on


General Settings:
 Integral files         IntName         .... 2picolinate_water_freq_d3
 Hartree-Fock type      HFTyp           .... RHF
 Total Charge           Charge          ....    0
 Multiplicity           Mult            ....    1
 Number of Electrons    NEL             ....  436
 Basis Dimension        Dim             .... 1238
 Nuclear Repulsion      ENuc            ....   9365.1866710600 Eh

Convergence Acceleration:
 DIIS                   CNVDIIS         .... on
   Start iteration      DIISMaxIt       ....    12
   Startup error        DIISStart       ....  0.200000
   # of expansion vecs  DIISMaxEq       ....     5
   Bias factor          DIISBfac        ....   1.050
   Max. coefficient     DIISMaxC        ....  10.000
 Trust-Rad. Augm. Hess. CNVTRAH         .... auto
   Auto Start mean grad. ratio tolernc. ....  1.125000
   Auto Start start iteration           ....    20
   Auto Start num. interpolation iter.  ....    10
   Max. Number of Micro iterations      ....    16
   Max. Number of Macro iterations      .... Maxiter - #DIIS iter
   Number of Davidson start vectors     ....     2
   Converg. threshold I  (grad. norm)   ....   5.000e-05
   Converg. threshold II (energy diff.) ....   1.000e-06
   Grad. Scal. Fac. for Micro threshold ....   0.100
   Minimum threshold for Micro iter.    ....   0.010
   NR start threshold (gradient norm)   ....   0.001
   Initial trust radius                 ....   0.400
   Minimum AH scaling param. (alpha)    ....   1.000
   Maximum AH scaling param. (alpha)    .... 1000.000
   Orbital update algorithm             .... Taylor
   White noise on init. David. guess    .... on
   Maximum white noise                  ....   0.010
   Quad. conv. algorithm                .... NR
 SOSCF                  CNVSOSCF        .... off
 Level Shifting         CNVShift        .... on
   Level shift para.    LevelShift      ....    0.2500
   Turn off err/grad.   ShiftErr        ....    0.0010
 Zerner damping         CNVZerner       .... off
 Static damping         CNVDamp         .... on
   Fraction old density DampFac         ....    0.7000
   Max. Damping (<1)    DampMax         ....    0.9800
   Min. Damping (>=0)   DampMin         ....    0.0000
   Turn off err/grad.   DampErr         ....    0.1000
 Fernandez-Rico         CNVRico         .... off

SCF Procedure:
 Maximum # iterations   MaxIter         ....   125
 SCF integral mode      SCFMode         .... Direct
   Integral package                     .... SHARK and LIBINT hybrid scheme
 Reset frequency        DirectResetFreq ....    20
 Integral Threshold     Thresh          ....  1.000e-10 Eh
 Primitive CutOff       TCut            ....  1.000e-11 Eh

Convergence Tolerance:
 Convergence Check Mode ConvCheckMode   .... Total+1el-Energy
 Convergence forced     ConvForced      .... 0
 Energy Change          TolE            ....  1.000e-06 Eh
 1-El. energy change                    ....  1.000e-03 Eh
 DIIS Error             TolErr          ....  1.000e-06


Diagonalization of the overlap matrix:
Smallest eigenvalue                        ... 2.446e-08
Time for diagonalization                   ...    0.093 sec
Threshold for overlap eigenvalues          ... 1.000e-08
Number of eigenvalues below threshold      ... 0
Time for construction of square roots      ...    0.074 sec
Total time needed                          ...    0.173 sec

Time for model grid setup =    0.748 sec

------------------------------
INITIAL GUESS: MODEL POTENTIAL
------------------------------
Loading Hartree-Fock densities                     ... done
Calculating cut-offs                               ... done
Initializing the effective Hamiltonian             ... done
Setting up the integral package (SHARK)            ... done
Starting the Coulomb interaction                   ... done (   1.1 sec)
Reading the grid                                   ... done
Mapping shells                                     ... done
Starting the XC term evaluation                    ... done (   0.5 sec)
  promolecular density results
     # of electrons  =    435.980120847
     EX              =   -433.918816779
     EC              =    -15.756860214
     EX+EC           =   -449.675676993
Transforming the Hamiltonian                       ... done (   0.1 sec)
Diagonalizing the Hamiltonian                      ... done (   0.1 sec)
Back transforming the eigenvectors                 ... done (   0.0 sec)
Now organizing SCF variables                       ... done
                      ------------------
                      INITIAL GUESS DONE (   2.5 sec)
                      ------------------
-------------------
DFT GRID GENERATION
-------------------

General Integration Accuracy     IntAcc      ... 4.388
Radial Grid Type                 RadialGrid  ... OptM3 with GC (2021)
Angular Grid (max. ang.)         AngularGrid ... 4 (Lebedev-302)
Angular grid pruning method      GridPruning ... 4 (adaptive)
Weight generation scheme         WeightScheme... Becke
Basis function cutoff            BFCut       ... 1.0000e-10
Integration weight cutoff        WCut        ... 1.0000e-14
Angular grids for H and He will be reduced by one unit
Partially contracted basis set               ... off
Rotationally invariant grid construction     ... off

Total number of grid points                  ...   449722
Total number of batches                      ...     7067
Average number of points per batch           ...       63
Average number of grid points per atom       ...     5418
Time for grid setup =    2.636 sec

--------------------
COSX GRID GENERATION
--------------------

GRIDX 1
-------
General Integration Accuracy     IntAcc      ... 3.816
Radial Grid Type                 RadialGrid  ... OptM3 with GC (2021)
Angular Grid (max. ang.)         AngularGrid ... 1 (Lebedev-50)
Angular grid pruning method      GridPruning ... 4 (adaptive)
Weight generation scheme         WeightScheme... Becke
Basis function cutoff            BFCut       ... 1.0000e-10
Integration weight cutoff        WCut        ... 1.0000e-14
Angular grids for H and He will be reduced by one unit
Partially contracted basis set               ... on
Rotationally invariant grid construction     ... off

Total number of grid points                  ...    55942
Total number of batches                      ...      912
Average number of points per batch           ...       61
Average number of grid points per atom       ...      674
UseSFitting                                  ... on

GRIDX 2
-------
General Integration Accuracy     IntAcc      ... 4.020
Radial Grid Type                 RadialGrid  ... OptM3 with GC (2021)
Angular Grid (max. ang.)         AngularGrid ... 2 (Lebedev-110)
Angular grid pruning method      GridPruning ... 4 (adaptive)
Weight generation scheme         WeightScheme... Becke
Basis function cutoff            BFCut       ... 1.0000e-10
Integration weight cutoff        WCut        ... 1.0000e-14
Angular grids for H and He will be reduced by one unit
Partially contracted basis set               ... on
Rotationally invariant grid construction     ... off

Total number of grid points                  ...   133962
Total number of batches                      ...     2137
Average number of points per batch           ...       62
Average number of grid points per atom       ...     1614
UseSFitting                                  ... on

GRIDX 3
-------
General Integration Accuracy     IntAcc      ... 4.338
Radial Grid Type                 RadialGrid  ... OptM3 with GC (2021)
Angular Grid (max. ang.)         AngularGrid ... 3 (Lebedev-194)
Angular grid pruning method      GridPruning ... 4 (adaptive)
Weight generation scheme         WeightScheme... Becke
Basis function cutoff            BFCut       ... 1.0000e-10
Integration weight cutoff        WCut        ... 1.0000e-14
Angular grids for H and He will be reduced by one unit
Partially contracted basis set               ... on
Rotationally invariant grid construction     ... off

Total number of grid points                  ...   293143
Total number of batches                      ...     4622
Average number of points per batch           ...       63
Average number of grid points per atom       ...     3532
UseSFitting                                  ... on

Time for X-Grid setup             =    3.946 sec

--------------
SCF ITERATIONS
--------------
ITER       Energy         Delta-E        Max-DP      RMS-DP      [F,P]     Damp
               ***  Starting incremental Fock matrix formation  ***
  0  -4778.5702453144   0.000000000000667.42825518  0.79544531  0.4760261 0.7000
  1  -4778.7525932113  -0.182347896894200.33186124  0.35676448  0.4138300 0.7000
                               ***Turning on DIIS***
  2  -4779.6211544427  -0.868561231404413.10355579  0.85482159  0.0864118 0.0000
  3  -4773.7602122619   5.86094218082923.11865294  0.04048520  1.1228250 0.7000
  4  -4774.3621294279  -0.60191716601520.44127611  0.03866442  1.0421370 0.7000
  5  -4775.0142553903  -0.65212596245315.79477895  0.02967388  0.9576552 0.7000
  6  -4775.5808285169  -0.56657312652011.93762800  0.02252122  0.8854700 0.7000
  7  -4776.0354937932  -0.4546652763684235213.37884771 5971.46169999  0.8278584 0.7000
  8  -4764.8695269872  11.1659668060471572339.58920603 2163.42297941  0.3365733 0.7000
  9  -4770.0380713692  -5.168544382061161135.38301139 480.59895980  0.6677124 0.7000
 10  -4774.5582597535  -4.5201883843021782839.37897749 2454.44383116  0.3408069 0.7000
 11  -4778.1596346008  -3.6013748472921246842.80644291 1716.54432569  0.1379557 0.7000
 12  -4779.2482498686  -1.0886152677612908590.51006899 4004.54253215  0.0777067 0.0000
 13  -4777.8259139877   1.422335880857845.98944980  1.21080711  0.5092624 0.7000
 14  -4777.7931230512   0.0327909365341140.82638892  1.64097802  0.5190696 0.7000
 15  -4777.7007941249   0.092328926320662.71086512  0.98592594  0.5964534 0.7000
 16  -4777.6510638341   0.049730290819706.62818936  1.09540717  0.6667991 0.7000
 17  -4777.7381417348  -0.0870779007051139727.33978173 1774.35645220  0.6913626 0.7000
 18  -4761.2503865134  16.487755221359666023.04002832 1002.20437161  0.4390737 0.7000
 19  -4766.4336451314  -5.183258617950546056.82036279 824.54925428  0.7350778 0.7000
               *** Restarting incremental Fock matrix formation ***
                                   *** Resetting DIIS ***

 WARNING: the maximum gradient error descreased on average only by a factor   0.8
          during the last 20 iterations

                      *** Initiating the TRAH-SCF procedure ***


TRAH GRIDX
----------

General Integration Accuracy     IntAcc      ... 3.067
Radial Grid Type                 RadialGrid  ... OptM3 with GC (2021)
Angular Grid (max. ang.)         AngularGrid ... 1 (Lebedev-50)
Angular grid pruning method      GridPruning ... 4 (adaptive)
Weight generation scheme         WeightScheme... Becke
Basis function cutoff            BFCut       ... 1.0000e-10
Integration weight cutoff        WCut        ... 1.0000e-14
Angular grids for H and He will be reduced by one unit
Partially contracted basis set               ... on
Rotationally invariant grid construction     ... off

Total number of grid points                  ...    30471
Total number of batches                      ...      516
Average number of points per batch           ...       59
Average number of grid points per atom       ...      367


TRAH GRID
---------

General Integration Accuracy     IntAcc      ... 3.467
Radial Grid Type                 RadialGrid  ... OptM3 with GC (2021)
Angular Grid (max. ang.)         AngularGrid ... 1 (Lebedev-50)
Angular grid pruning method      GridPruning ... 4 (adaptive)
Weight generation scheme         WeightScheme... Becke
Basis function cutoff            BFCut       ... 1.0000e-10
Integration weight cutoff        WCut        ... 1.0000e-14
Angular grids for H and He will be reduced by one unit
Partially contracted basis set               ... off
Rotationally invariant grid construction     ... off

Total number of grid points                  ...    71489
Total number of batches                      ...     1161
Average number of points per batch           ...       61
Average number of grid points per atom       ...      861

 --------------------------------------------------------------------------------------------
   Iter.        energy            ||Error||_2        Shift      TRadius  Mac/Mic        Rej.
 --------------------------------------------------------------------------------------------
WARNING: 2061 diagonal Hessian elements are negative!
    0      -4776.214848926470     8.130275e+00                     0.400 (TRAH MAcro)   No
WARNING : negative HOMO - LUMO gap : -3.060369
    0     dE    -2.144123e+00     4.541347e+00    -6.4759e+00      0.400 (TRAH MIcro)
    0     dE    -2.556868e+00     1.861561e+00    -1.4734e+01      0.400 (TRAH MIcro)
    0     dE    -2.575472e+00     1.539887e+00    -1.5137e+01      0.400 (TRAH MIcro)
    0     dE    -2.592843e+00     8.931141e-01    -1.5329e+01      0.400 (TRAH MIcro)
    0     dE    -2.605145e+00     2.347047e-01    -1.5219e+01      0.400 (TRAH MIcro)
    0     dE    -2.606569e+00     1.135555e-01    -1.5191e+01      0.400 (TRAH MIcro)
    0     dE    -2.606715e+00     8.694328e-02    -1.5184e+01      0.400 (TRAH MIcro)
    0     dE    -2.606759e+00     6.153497e-02    -1.5182e+01      0.400 (TRAH MIcro)
    0     dE    -2.606804e+00     2.824611e-02    -1.5181e+01      0.400 (TRAH MIcro)
    0     dE    -2.606810e+00     1.490799e-02    -1.5181e+01      0.400 (TRAH MIcro)
    0     dE    -2.606815e+00     6.115516e-03    -1.5181e+01      0.400 (TRAH MIcro)
WARNING: 1309 diagonal Hessian elements are negative!
    1      -4778.713830764857     5.285347e+00                     0.480 (TRAH MAcro)   No
WARNING : negative HOMO - LUMO gap : -2.054598
    1     dE    -1.672709e+00     3.935188e+00    -3.5089e+00      0.480 (TRAH MIcro)
    1     dE    -2.110319e+00     1.385885e+00    -8.7110e+00      0.480 (TRAH MIcro)
    1     dE    -2.139232e+00     8.937812e-01    -9.1555e+00      0.480 (TRAH MIcro)
    1     dE    -2.153977e+00     4.398575e-01    -9.3663e+00      0.480 (TRAH MIcro)
    1     dE    -2.159800e+00     1.274615e-01    -9.3119e+00      0.480 (TRAH MIcro)
    1     dE    -2.160417e+00     7.338414e-02    -9.2963e+00      0.480 (TRAH MIcro)
    1     dE    -2.160523e+00     4.659200e-02    -9.2930e+00      0.480 (TRAH MIcro)
    1     dE    -2.160571e+00     1.831496e-02    -9.2888e+00      0.480 (TRAH MIcro)
    1     dE    -2.160586e+00     7.975465e-03    -9.2881e+00      0.480 (TRAH MIcro)
WARNING: 665 diagonal Hessian elements are negative!
    2      -4780.569205893227     2.688456e+00                     0.576 (TRAH MAcro)   No
WARNING : negative HOMO - LUMO gap : -0.901251
    2     dE    -4.903159e-01     1.513590e+00    -8.8480e-01      0.329 (TRAH MIcro)
    2     dE    -8.519081e-01     1.017890e+00    -1.6523e+00      0.576 (TRAH MIcro)
    2     dE    -9.242398e-01     6.930896e-01    -2.4202e+00      0.576 (TRAH MIcro)
    2     dE    -1.012587e+00     5.015054e-01    -3.5072e+00      0.576 (TRAH MIcro)
    2     dE    -1.030808e+00     1.736485e-01    -3.6886e+00      0.576 (TRAH MIcro)
    2     dE    -1.032774e+00     7.159859e-02    -3.7004e+00      0.576 (TRAH MIcro)
    2     dE    -1.033119e+00     3.000347e-02    -3.7011e+00      0.576 (TRAH MIcro)
    2     dE    -1.033300e+00     3.276669e-02    -3.7019e+00      0.576 (TRAH MIcro)
    2     dE    -1.033494e+00     4.053668e-02    -3.7034e+00      0.576 (TRAH MIcro)
    2     dE    -5.014160e-01     3.501321e-01    -5.5060e+00      0.259 (TRAH MIcro)
    2     dE    -5.027381e-01     1.384328e-01    -5.5472e+00      0.258 (TRAH MIcro)
    2     dE    -5.027611e-01     6.536715e-02    -5.5552e+00      0.257 (TRAH MIcro)
    2     dE    -5.028507e-01     2.381954e-02    -5.5573e+00      0.257 (TRAH MIcro)
    2     dE    -5.028540e-01     1.065143e-02    -5.5575e+00      0.257 (TRAH MIcro)
WARNING: 189 diagonal Hessian elements are negative!
    3      -4781.053088007522     1.235332e+00                     0.691 (TRAH MAcro)   No
WARNING : negative HOMO - LUMO gap : -0.411122
    3     dE    -1.467806e-01     8.421224e-01    -2.7929e-01      0.226 (TRAH MIcro)
    3     dE    -3.154817e-01     9.314295e-01    -4.8054e-01      0.559 (TRAH MIcro)
    3     dE    -4.163237e-01     5.486690e-01    -6.3769e-01      0.691 (TRAH MIcro)
    3     dE    -4.699673e-01     8.889462e-01    -9.3492e-01      0.691 (TRAH MIcro)
    3     dE    -5.680625e-01     3.992520e-01    -1.5566e+00      0.691 (TRAH MIcro)
    3     dE    -5.793794e-01     1.558378e-01    -1.6273e+00      0.691 (TRAH MIcro)
    3     dE    -5.812323e-01     5.401218e-02    -1.6361e+00      0.691 (TRAH MIcro)
    3     dE    -5.815388e-01     3.474441e-02    -1.6376e+00      0.691 (TRAH MIcro)
    3     dE    -5.819339e-01     5.897068e-02    -1.6406e+00      0.691 (TRAH MIcro)
    3     dE    -5.828721e-01     6.885209e-02    -1.6556e+00      0.691 (TRAH MIcro)
    3     dE    -2.251653e-01     2.204177e-01    -2.3221e+00      0.281 (TRAH MIcro)
    3     dE    -2.219148e-01     7.602039e-02    -2.3596e+00      0.271 (TRAH MIcro)
    3     dE    -2.218992e-01     1.564246e-02    -2.3619e+00      0.270 (TRAH MIcro)
    3     dE    -2.218989e-01     4.413152e-03    -2.3621e+00      0.270 (TRAH MIcro)
WARNING: 23 diagonal Hessian elements are negative!
    4      -4781.263968002676     5.447279e-01                     0.829 (TRAH MAcro)   No
WARNING : negative HOMO - LUMO gap : -0.144481
    4     dE    -7.117051e-02     7.093742e-01    -1.3420e-01      0.246 (TRAH MIcro)
    4     dE    -1.684338e-01     5.103099e-01    -2.5548e-01      0.564 (TRAH MIcro)
    4     dE    -1.859421e-01     3.422160e-01    -2.7135e-01      0.609 (TRAH MIcro)
    4     dE    -2.132964e-01     3.299639e-01    -2.9048e-01      0.685 (TRAH MIcro)
    4     dE    -2.788481e-01     4.232156e-01    -3.8589e-01      0.829 (TRAH MIcro)
    4     dE    -2.866331e-01     2.797954e-01    -4.3191e-01      0.825 (TRAH MIcro)
    4     dE    -2.936474e-01     1.374172e-01    -4.5758e-01      0.829 (TRAH MIcro)
    4     dE    -2.952444e-01     6.559361e-02    -4.6382e-01      0.829 (TRAH MIcro)
    4     dE    -2.958738e-01     5.141573e-02    -4.6607e-01      0.829 (TRAH MIcro)
    4     dE    -2.967617e-01     9.840016e-02    -4.7108e-01      0.829 (TRAH MIcro)
    4     dE    -2.698699e-01     1.782449e-01    -5.3157e-01      0.751 (TRAH MIcro)
    4     dE    -1.610632e-01     6.494751e-02    -7.2005e-01      0.437 (TRAH MIcro)
    4     dE    -1.597814e-01     1.764311e-02    -7.2231e-01      0.432 (TRAH MIcro)
    4     dE    -1.597026e-01     7.212725e-03    -7.2239e-01      0.431 (TRAH MIcro)
    5      -4781.401938017551     3.789977e-01                     0.995 (TRAH MAcro)   No
    5     dE    -6.976994e-03     3.702392e-01    -1.3935e-02      0.037 (TRAH MIcro)
    5     dE    -1.803951e-02     6.297085e-01    -3.5215e-02      0.157 (TRAH MIcro)
    5     dE    -4.715561e-02     2.413378e-01    -8.3903e-02      0.352 (TRAH MIcro)
    5     dE    -5.142365e-02     1.321293e-01    -8.9641e-02      0.384 (TRAH MIcro)
    5     dE    -5.274132e-02     6.571889e-02    -9.1320e-02      0.394 (TRAH MIcro)
    5     dE    -5.337768e-02     3.676671e-02    -9.2002e-02      0.400 (TRAH MIcro)
    5     dE    -5.381924e-02     2.955237e-02    -9.2320e-02      0.407 (TRAH MIcro)
    5     dE    -5.432564e-02     2.826839e-02    -9.2568e-02      0.417 (TRAH MIcro)
    5     dE    -5.484084e-02     2.209379e-02    -9.2748e-02      0.427 (TRAH MIcro)
    5     dE    -5.511396e-02     1.075572e-02    -9.2824e-02      0.433 (TRAH MIcro)
    5     dE    -5.517972e-02     6.043775e-03    -9.2840e-02      0.434 (TRAH MIcro)
WARNING: 1 diagonal Hessian elements are negative!
    6      -4781.450958535896     2.114782e-01                     1.194 (TRAH MAcro)   No
WARNING : negative HOMO - LUMO gap : -0.001858
    6     dE    -1.528554e-03     1.235174e-01    -3.0565e-03      0.014 (TRAH MIcro)
    6     dE    -1.906815e-03     8.680928e-02    -3.8108e-03      0.027 (TRAH MIcro)
    6     dE    -3.122364e-03     7.482063e-02    -6.2023e-03      0.083 (TRAH MIcro)
    6     dE    -6.700401e-03     2.197802e-01    -1.1421e-02      0.416 (TRAH MIcro)
    6     dE    -5.104417e-02     4.889365e-01    -6.2611e-02      1.172 (TRAH MIcro)
    6     dE    -6.899889e-02     2.983401e-01    -9.9635e-02      1.127 (TRAH MIcro)
    6     dE    -8.811078e-02     1.744605e-01    -1.1619e-01      1.194 (TRAH MIcro)
    6     dE    -9.142481e-02     9.857177e-02    -1.2071e-01      1.194 (TRAH MIcro)
    6     dE    -9.235181e-02     4.260787e-02    -1.2191e-01      1.194 (TRAH MIcro)
    6     dE    -9.250697e-02     2.273036e-02    -1.2217e-01      1.194 (TRAH MIcro)
    6     dE    -9.259458e-02     2.033892e-02    -1.2238e-01      1.194 (TRAH MIcro)
    6     dE    -8.789916e-02     1.490020e-02    -1.2261e-01      1.162 (TRAH MIcro)
    6     dE    -9.041405e-02     7.143948e-03    -1.2263e-01      1.179 (TRAH MIcro)
 ---------------------------------
          TRAH Step control 
 ---------------------------------
  predicted energy change = -0.090414
  actual energy  change   = 0.421120
  energy change ratio     = -4.657684
  old trust radius        = 1.194394
  new trust radius        = 0.836076
  reject step?            =  1
    7      -4781.450958535896     3.789977e-01                     0.836 (TRAH MAcro)  Yes
WARNING: 1 diagonal Hessian elements are negative!
    8      -4781.450958535901     2.114782e-01                     0.836 (TRAH MAcro)   No
WARNING : negative HOMO - LUMO gap : -0.001858
    8     dE    -1.528490e-03     1.234999e-01    -3.0563e-03      0.014 (TRAH MIcro)
    8     dE    -1.906791e-03     8.676060e-02    -3.8108e-03      0.027 (TRAH MIcro)
    8     dE    -3.122324e-03     7.485665e-02    -6.2022e-03      0.083 (TRAH MIcro)
    8     dE    -6.697821e-03     2.196616e-01    -1.1418e-02      0.416 (TRAH MIcro)
    8     dE    -2.945119e-02     3.345832e-01    -6.5785e-02      0.836 (TRAH MIcro)
    8     dE    -4.012419e-02     2.149510e-01    -1.0145e-01      0.833 (TRAH MIcro)
    8     dE    -4.561263e-03     3.046142e-02    -1.4521e-01      0.146 (TRAH MIcro)
    8     dE    -4.755797e-03     2.342453e-02    -1.5173e-01      0.145 (TRAH MIcro)
    8     dE    -4.666841e-03     1.438587e-02    -1.5354e-01      0.138 (TRAH MIcro)
    8     dE    -4.574016e-03     1.730974e-02    -1.5495e-01      0.132 (TRAH MIcro)
    8     dE    -4.524349e-03     1.758627e-02    -1.5642e-01      0.127 (TRAH MIcro)
    8     dE    -4.552165e-03     1.608355e-02    -1.5784e-01      0.127 (TRAH MIcro)
    8     dE    -4.765341e-03     2.563891e-02    -1.5998e-01      0.134 (TRAH MIcro)
    8     dE    -6.367433e-03     4.416692e-02    -1.6587e-01      0.188 (TRAH MIcro)
    9      -4781.454988928680     1.117186e-01                     0.836 (TRAH MAcro)   No
WARNING : small    HOMO - LUMO gap : 0.014862
    9     dE    -4.059310e-04     1.431993e-01    -8.1182e-04      0.007 (TRAH MIcro)
    9     dE    -4.804258e-04     6.982313e-02    -9.6072e-04      0.012 (TRAH MIcro)
    9     dE    -9.383803e-04     5.821411e-02    -1.8714e-03      0.054 (TRAH MIcro)
    9     dE    -1.287574e-03     7.672191e-02    -2.5474e-03      0.104 (TRAH MIcro)
    9     dE    -1.548454e-03     6.459257e-02    -3.0300e-03      0.149 (TRAH MIcro)
    9     dE    -1.876656e-03     3.960629e-02    -3.5983e-03      0.208 (TRAH MIcro)
    9     dE    -2.105093e-03     2.814599e-02    -3.9650e-03      0.249 (TRAH MIcro)
    9     dE    -2.247825e-03     3.149964e-02    -4.1790e-03      0.275 (TRAH MIcro)
    9     dE    -2.753927e-03     7.677343e-02    -4.8196e-03      0.378 (TRAH MIcro)
    9     dE    -8.776470e-03     2.089817e-01    -1.6645e-02      0.836 (TRAH MIcro)
    9     dE    -1.143931e-02     7.672155e-02    -2.5212e-02      0.836 (TRAH MIcro)
    9     dE    -1.199806e-02     5.524388e-02    -2.6998e-02      0.836 (TRAH MIcro)
    9     dE    -1.227829e-02     4.288733e-02    -2.7924e-02      0.836 (TRAH MIcro)
    9     dE    -4.603343e-03     1.189072e-02    -3.2351e-02      0.412 (TRAH MIcro)
 ---------------------------------
          TRAH Step control 
 ---------------------------------
  predicted energy change = -0.004603
  actual energy  change   = 0.004018
  energy change ratio     = -0.872791
  old trust radius        = 0.836076
  new trust radius        = 0.585253
  reject step?            =  1
   10      -4781.454988928680     2.114782e-01                     0.585 (TRAH MAcro)  Yes
   11      -4781.454988928672     1.117186e-01                     0.585 (TRAH MAcro)   No
WARNING : small    HOMO - LUMO gap : 0.014862
   11     dE    -4.058896e-04     1.433840e-01    -8.1174e-04      0.007 (TRAH MIcro)
   11     dE    -4.803950e-04     6.979161e-02    -9.6066e-04      0.012 (TRAH MIcro)
   11     dE    -9.383381e-04     5.821584e-02    -1.8713e-03      0.054 (TRAH MIcro)
   11     dE    -1.287528e-03     7.672364e-02    -2.5473e-03      0.104 (TRAH MIcro)
   11     dE    -1.548429e-03     6.458972e-02    -3.0300e-03      0.149 (TRAH MIcro)
   11     dE    -1.876637e-03     3.960532e-02    -3.5982e-03      0.208 (TRAH MIcro)
   11     dE    -2.105082e-03     2.814887e-02    -3.9650e-03      0.249 (TRAH MIcro)
   11     dE    -2.247814e-03     3.150100e-02    -4.1790e-03      0.275 (TRAH MIcro)
   11     dE    -2.753888e-03     7.676369e-02    -4.8196e-03      0.378 (TRAH MIcro)
   11     dE    -5.480624e-03     1.317308e-01    -1.8909e-02      0.569 (TRAH MIcro)
   11     dE    -3.580581e-03     2.445819e-02    -3.1281e-02      0.338 (TRAH MIcro)
   11     dE    -3.956574e-03     1.951129e-02    -3.1834e-02      0.366 (TRAH MIcro)
   11     dE    -4.157160e-03     1.327753e-02    -3.2078e-02      0.380 (TRAH MIcro)
   11     dE    -4.374856e-03     1.092890e-02    -3.2262e-02      0.395 (TRAH MIcro)
 ---------------------------------
          TRAH Step control 
 ---------------------------------
  predicted energy change = -0.004375
  actual energy  change   = 0.002702
  energy change ratio     = -0.617516
  old trust radius        = 0.585253
  new trust radius        = 0.409677
  reject step?            =  1
   12      -4781.454988928672     2.114782e-01                     0.410 (TRAH MAcro)  Yes
   13      -4781.454988928685     1.117186e-01                     0.410 (TRAH MAcro)   No
WARNING : small    HOMO - LUMO gap : 0.014862
   13     dE    -4.058505e-04     1.434734e-01    -8.1166e-04      0.007 (TRAH MIcro)
   13     dE    -4.803832e-04     6.977956e-02    -9.6064e-04      0.012 (TRAH MIcro)
   13     dE    -9.383332e-04     5.820876e-02    -1.8713e-03      0.054 (TRAH MIcro)
   13     dE    -1.287526e-03     7.671906e-02    -2.5473e-03      0.104 (TRAH MIcro)
   13     dE    -1.548427e-03     6.458598e-02    -3.0300e-03      0.149 (TRAH MIcro)
   13     dE    -1.876637e-03     3.960671e-02    -3.5982e-03      0.208 (TRAH MIcro)
   13     dE    -2.105093e-03     2.814664e-02    -3.9650e-03      0.249 (TRAH MIcro)
   13     dE    -2.247826e-03     3.149731e-02    -4.1790e-03      0.275 (TRAH MIcro)
   13     dE    -2.753900e-03     7.676158e-02    -4.8196e-03      0.378 (TRAH MIcro)
   13     dE    -3.914703e-03     8.553264e-02    -2.1855e-02      0.410 (TRAH MIcro)
   13     dE    -3.574216e-03     2.444025e-02    -3.1287e-02      0.337 (TRAH MIcro)
   13     dE    -3.941395e-03     1.888954e-02    -3.1827e-02      0.365 (TRAH MIcro)
   13     dE    -4.143344e-03     1.319613e-02    -3.2069e-02      0.379 (TRAH MIcro)
   13     dE    -4.367889e-03     1.104574e-02    -3.2256e-02      0.395 (TRAH MIcro)
 ---------------------------------
          TRAH Step control 
 ---------------------------------
  predicted energy change = -0.004368
  actual energy  change   = 0.002664
  energy change ratio     = -0.609930
  old trust radius        = 0.409677
  new trust radius        = 0.286774
  reject step?            =  1
   14      -4781.454988928685     2.114782e-01                     0.287 (TRAH MAcro)  Yes
   15      -4781.454988928623     1.117186e-01                     0.287 (TRAH MAcro)   No
WARNING : small    HOMO - LUMO gap : 0.014862
   15     dE    -4.058878e-04     1.433310e-01    -8.1173e-04      0.007 (TRAH MIcro)
   15     dE    -4.804104e-04     6.982168e-02    -9.6069e-04      0.012 (TRAH MIcro)
   15     dE    -9.383588e-04     5.820696e-02    -1.8713e-03      0.054 (TRAH MIcro)
   15     dE    -1.287542e-03     7.672842e-02    -2.5473e-03      0.104 (TRAH MIcro)
   15     dE    -1.548440e-03     6.459441e-02    -3.0300e-03      0.149 (TRAH MIcro)
   15     dE    -1.876664e-03     3.960684e-02    -3.5983e-03      0.208 (TRAH MIcro)
   15     dE    -2.105114e-03     2.814728e-02    -3.9650e-03      0.249 (TRAH MIcro)
   15     dE    -2.247856e-03     3.149889e-02    -4.1791e-03      0.275 (TRAH MIcro)
   15     dE    -2.514446e-03     4.953430e-02    -1.2044e-02      0.287 (TRAH MIcro)
   15     dE    -2.631671e-03     4.103233e-02    -2.9511e-02      0.252 (TRAH MIcro)
   15     dE    -3.068443e-03     2.033936e-02    -3.3152e-02      0.287 (TRAH MIcro)
   15     dE    -3.086632e-03     1.224029e-02    -3.4431e-02      0.285 (TRAH MIcro)
   15     dE    -3.115434e-03     8.764737e-03    -3.4878e-02      0.287 (TRAH MIcro)
   16      -4781.456187611197     1.445004e-01                     0.287 (TRAH MAcro)   No
WARNING : small    HOMO - LUMO gap : 0.009291
   16     dE    -6.379525e-04     2.689172e-01    -1.2758e-03      0.009 (TRAH MIcro)
   16     dE    -9.164287e-04     4.735030e-02    -1.8321e-03      0.021 (TRAH MIcro)
   16     dE    -3.801487e-03     2.505804e-01    -3.8896e-02      0.284 (TRAH MIcro)
   16     dE    -5.950743e-03     1.022924e-01    -9.6295e-02      0.286 (TRAH MIcro)
   16     dE    -6.495352e-03     5.353917e-02    -1.1216e-01      0.287 (TRAH MIcro)
   16     dE    -6.723616e-03     2.410525e-02    -1.1874e-01      0.287 (TRAH MIcro)
   16     dE    -6.749366e-03     1.207156e-02    -1.1950e-01      0.287 (TRAH MIcro)
   16     dE    -6.760176e-03     5.127604e-03    -1.1981e-01      0.287 (TRAH MIcro)
 ---------------------------------
          TRAH Step control 
 ---------------------------------
  predicted energy change = -0.006760
  actual energy  change   = 0.000116
  energy change ratio     = -0.017106
  old trust radius        = 0.286774
  new trust radius        = 0.200742
  reject step?            =  1
   17      -4781.456187611197     1.117186e-01                     0.201 (TRAH MAcro)  Yes
   18      -4781.456187611294     1.445004e-01                     0.201 (TRAH MAcro)   No
WARNING : small    HOMO - LUMO gap : 0.009291
   18     dE    -6.373503e-04     2.701700e-01    -1.2746e-03      0.009 (TRAH MIcro)
   18     dE    -9.163757e-04     4.730974e-02    -1.8319e-03      0.021 (TRAH MIcro)
   18     dE    -2.896383e-03     1.624141e-01    -5.3140e-02      0.201 (TRAH MIcro)
   18     dE    -3.831475e-03     6.658664e-02    -1.0690e-01      0.201 (TRAH MIcro)
   18     dE    -4.062309e-03     3.611027e-02    -1.2170e-01      0.201 (TRAH MIcro)
[...]
202:   1504.39   0.002114   10.68  0.000438  (-0.020766  0.001668 -0.002118)
203:   1512.28   0.003725   18.82  0.000769  (-0.023353 -0.005944 -0.013710)
204:   1518.51   0.011269   56.95  0.002316  (-0.028422 -0.036200 -0.014057)
205:   1597.50   0.006208   31.37  0.001213  (-0.026250 -0.015767 -0.016585)
206:   1611.89   0.002350   11.88  0.000455  (-0.020029  0.003843 -0.006251)
207:   1612.31   0.001624    8.21  0.000314  ( 0.016837  0.005239  0.001848)
208:   1613.67   0.003148   15.91  0.000609  ( 0.021418  0.001086  0.012200)
209:   1614.49   0.020995  106.10  0.004058  ( 0.042533 -0.008096  0.046727)
210:   1619.62   0.022352  112.96  0.004307  ( 0.052069  0.010602  0.038511)
211:   1640.46   0.003517   17.77  0.000669  (-0.003405 -0.010969 -0.023174)
212:   1645.57   0.016901   85.41  0.003205  (-0.024300 -0.017164  0.048166)
213:   1648.06   0.003875   19.58  0.000734  (-0.023260  0.013077  0.004655)
214:   1649.06   0.015054   76.08  0.002849  ( 0.024815 -0.031774 -0.034978)
215:   1652.89   0.003198   16.16  0.000604  (-0.005069 -0.017319  0.016675)
216:   1656.84   0.036146  182.67  0.006808  ( 0.060479 -0.000055  0.056128)
217:   1662.28   0.012155   61.42  0.002282  (-0.027858  0.028608 -0.026217)
218:   1683.62   0.172487  871.68  0.031971  (-0.042414  0.012670 -0.173238)
219:   1690.36   0.149345  754.73  0.027571  ( 0.136119  0.072952 -0.060998)
220:   1698.02   0.213727  1080.09  0.039279  (-0.070274  0.093155  0.160195)
221:   1798.31   0.157956  798.25  0.027410  ( 0.115222  0.001737  0.118875)
222:   1832.53   0.108110  546.34  0.018410  ( 0.082711 -0.043070  0.098560)
223:   2975.01   0.003543   17.91  0.000372  (-0.016890  0.008087  0.004582)
224:   3202.16   0.000523    2.64  0.000051  (-0.000853  0.006933  0.001481)
225:   3203.26   0.001375    6.95  0.000134  ( 0.008323 -0.007761  0.002097)
226:   3203.69   0.000897    4.53  0.000087  ( 0.003335  0.000443  0.008723)
227:   3204.35   0.000935    4.73  0.000091  ( 0.005177  0.005821  0.005514)
228:   3205.77   0.000473    2.39  0.000046  (-0.002264 -0.006185  0.001647)
229:   3215.00   0.000352    1.78  0.000034  (-0.002083 -0.004085 -0.003619)
230:   3216.13   0.000686    3.47  0.000067  (-0.006355 -0.004508 -0.002421)
231:   3216.57   0.000047    0.24  0.000005  (-0.002078 -0.000310 -0.000340)
232:   3217.93   0.000119    0.60  0.000012  ( 0.002108 -0.002377  0.001221)
233:   3218.07   0.000189    0.96  0.000018  ( 0.001547 -0.002706  0.002938)
234:   3218.60   0.000090    0.46  0.000009  ( 0.002382  0.001532 -0.000842)
235:   3226.49   0.000650    3.28  0.000063  ( 0.004743 -0.001149  0.006247)
236:   3228.46   0.002447   12.37  0.000237  (-0.012663 -0.001504 -0.008597)
237:   3229.71   0.001589    8.03  0.000154  ( 0.003630  0.008084  0.008660)
238:   3230.02   0.003059   15.46  0.000296  ( 0.009990 -0.007381  0.011884)
239:   3230.17   0.001872    9.46  0.000181  (-0.012363 -0.002341 -0.004742)
240:   3230.27   0.003383   17.10  0.000327  (-0.011771  0.009848 -0.009555)
241:   3231.10   0.001566    7.92  0.000151  (-0.008402 -0.008251 -0.003553)
242:   3235.62   0.000983    4.97  0.000095  ( 0.003981 -0.003280  0.008261)
243:   3236.12   0.000702    3.55  0.000068  ( 0.007947  0.001147  0.001791)
244:   3236.30   0.000544    2.75  0.000052  ( 0.006905  0.001600 -0.001501)
245:   3237.85   0.000531    2.68  0.000051  ( 0.001826 -0.001252 -0.006803)
246:   3266.83   0.000845    4.27  0.000081  ( 0.001973  0.008750 -0.000520)
247:   3645.59   0.044280  223.78  0.003790  ( 0.037152  0.014477 -0.046910)
248:   3735.70   0.002812   14.21  0.000235  (-0.010017 -0.011380  0.002247)

* The epsilon (eps) is given for a Dirac delta lineshape.
** The dipole moment derivative (T) already includes vibrational overlap.

The first frequency considered to be a vibration is 9
The total number of vibrations considered is 240


--------------------------
THERMOCHEMISTRY AT 298.15K
--------------------------

Temperature         ... 298.15 K
Pressure            ... 1.00 atm
Total Mass          ... 854.63 AMU

Throughout the following assumptions are being made:
  (1) The electronic state is orbitally nondegenerate
  (2) There are no thermally accessible electronically excited states
  (3) Hindered rotations indicated by low frequency modes are not
      treated as such but are treated as vibrations and this may
      cause some error
  (4) All equations used are the standard statistical mechanics
      equations for an ideal gas
  (5) All vibrations are strictly harmonic

freq.      12.60  E(vib)   ...       0.57 
freq.      16.53  E(vib)   ...       0.57 
freq.      19.57  E(vib)   ...       0.56 
freq.      23.97  E(vib)   ...       0.56 
freq.      27.44  E(vib)   ...       0.55 
freq.      34.96  E(vib)   ...       0.54 
freq.      43.24  E(vib)   ...       0.53 
freq.      44.01  E(vib)   ...       0.53 
freq.      45.95  E(vib)   ...       0.53 
freq.      49.74  E(vib)   ...       0.52 
freq.      50.84  E(vib)   ...       0.52 
freq.      55.08  E(vib)   ...       0.52 
freq.      56.60  E(vib)   ...       0.52 
freq.      88.26  E(vib)   ...       0.48 
freq.      96.34  E(vib)   ...       0.47 
freq.     100.13  E(vib)   ...       0.46 
freq.     106.08  E(vib)   ...       0.45 
freq.     107.27  E(vib)   ...       0.45 
freq.     114.76  E(vib)   ...       0.44 
freq.     120.57  E(vib)   ...       0.44 
freq.     126.51  E(vib)   ...       0.43 
freq.     133.34  E(vib)   ...       0.42 
freq.     138.35  E(vib)   ...       0.42 
freq.     144.69  E(vib)   ...       0.41 
freq.     148.62  E(vib)   ...       0.41 
freq.     156.67  E(vib)   ...       0.40 
freq.     158.55  E(vib)   ...       0.39 
freq.     164.75  E(vib)   ...       0.39 
freq.     167.09  E(vib)   ...       0.39 
freq.     172.50  E(vib)   ...       0.38 
freq.     186.82  E(vib)   ...       0.37 
freq.     188.53  E(vib)   ...       0.36 
freq.     189.63  E(vib)   ...       0.36 
freq.     202.34  E(vib)   ...       0.35 
freq.     206.57  E(vib)   ...       0.35 
freq.     212.89  E(vib)   ...       0.34 
freq.     225.38  E(vib)   ...       0.33 
freq.     228.19  E(vib)   ...       0.32 
freq.     242.89  E(vib)   ...       0.31 
freq.     244.82  E(vib)   ...       0.31 
freq.     254.17  E(vib)   ...       0.30 
freq.     265.05  E(vib)   ...       0.29 
freq.     266.65  E(vib)   ...       0.29 
freq.     275.64  E(vib)   ...       0.28 
freq.     284.36  E(vib)   ...       0.28 
freq.     293.23  E(vib)   ...       0.27 
freq.     318.15  E(vib)   ...       0.25 
freq.     322.05  E(vib)   ...       0.25 
freq.     332.47  E(vib)   ...       0.24 
freq.     344.30  E(vib)   ...       0.23 
freq.     348.02  E(vib)   ...       0.23 
freq.     359.74  E(vib)   ...       0.22 
freq.     374.30  E(vib)   ...       0.21 
freq.     407.05  E(vib)   ...       0.19 
freq.     414.24  E(vib)   ...       0.19 
freq.     421.61  E(vib)   ...       0.18 
freq.     425.01  E(vib)   ...       0.18 
freq.     429.38  E(vib)   ...       0.18 
freq.     429.63  E(vib)   ...       0.18 
freq.     434.56  E(vib)   ...       0.17 
freq.     435.48  E(vib)   ...       0.17 
freq.     436.51  E(vib)   ...       0.17 
freq.     452.89  E(vib)   ...       0.16 
freq.     464.03  E(vib)   ...       0.16 
freq.     469.17  E(vib)   ...       0.16 
freq.     471.85  E(vib)   ...       0.15 
freq.     478.07  E(vib)   ...       0.15 
freq.     483.97  E(vib)   ...       0.15 
freq.     487.41  E(vib)   ...       0.15 
freq.     492.31  E(vib)   ...       0.14 
freq.     531.60  E(vib)   ...       0.13 
freq.     535.20  E(vib)   ...       0.13 
freq.     537.95  E(vib)   ...       0.12 
freq.     540.32  E(vib)   ...       0.12 
freq.     544.52  E(vib)   ...       0.12 
freq.     549.39  E(vib)   ...       0.12 
freq.     551.54  E(vib)   ...       0.12 
freq.     566.06  E(vib)   ...       0.11 
freq.     577.54  E(vib)   ...       0.11 
freq.     596.65  E(vib)   ...       0.10 
freq.     617.86  E(vib)   ...       0.09 
freq.     644.39  E(vib)   ...       0.09 
freq.     645.91  E(vib)   ...       0.09 
freq.     647.20  E(vib)   ...       0.09 
freq.     660.70  E(vib)   ...       0.08 
freq.     690.87  E(vib)   ...       0.07 
freq.     692.60  E(vib)   ...       0.07 
freq.     694.14  E(vib)   ...       0.07 
freq.     697.11  E(vib)   ...       0.07 
freq.     698.90  E(vib)   ...       0.07 
freq.     703.03  E(vib)   ...       0.07 
freq.     703.91  E(vib)   ...       0.07 
freq.     706.11  E(vib)   ...       0.07 
freq.     708.20  E(vib)   ...       0.07 
freq.     713.83  E(vib)   ...       0.07 
freq.     720.09  E(vib)   ...       0.07 
freq.     758.54  E(vib)   ...       0.06 
freq.     768.85  E(vib)   ...       0.06 
freq.     770.20  E(vib)   ...       0.05 
freq.     771.50  E(vib)   ...       0.05 
freq.     771.95  E(vib)   ...       0.05 
freq.     772.56  E(vib)   ...       0.05 
freq.     802.35  E(vib)   ...       0.05 
freq.     804.09  E(vib)   ...       0.05 
freq.     804.26  E(vib)   ...       0.05 
freq.     823.82  E(vib)   ...       0.05 
freq.     824.59  E(vib)   ...       0.04 
freq.     825.70  E(vib)   ...       0.04 
freq.     826.94  E(vib)   ...       0.04 
freq.     829.79  E(vib)   ...       0.04 
freq.     835.70  E(vib)   ...       0.04 
freq.     837.96  E(vib)   ...       0.04 
freq.     843.65  E(vib)   ...       0.04 
freq.     886.17  E(vib)   ...       0.04 
freq.     893.35  E(vib)   ...       0.03 
freq.     907.48  E(vib)   ...       0.03 
freq.     918.24  E(vib)   ...       0.03 
freq.     925.50  E(vib)   ...       0.03 
freq.     926.16  E(vib)   ...       0.03 
freq.     928.42  E(vib)   ...       0.03 
freq.     928.49  E(vib)   ...       0.03 
freq.     930.37  E(vib)   ...       0.03 
freq.     960.36  E(vib)   ...       0.03 
freq.     971.03  E(vib)   ...       0.03 
freq.     977.53  E(vib)   ...       0.03 
freq.     993.17  E(vib)   ...       0.02 
freq.     993.39  E(vib)   ...       0.02 
freq.     994.32  E(vib)   ...       0.02 
freq.     997.15  E(vib)   ...       0.02 
freq.     998.81  E(vib)   ...       0.02 
freq.    1010.91  E(vib)   ...       0.02 
freq.    1020.11  E(vib)   ...       0.02 
freq.    1021.18  E(vib)   ...       0.02 
freq.    1023.62  E(vib)   ...       0.02 
freq.    1023.64  E(vib)   ...       0.02 
freq.    1025.14  E(vib)   ...       0.02 
freq.    1025.70  E(vib)   ...       0.02 
freq.    1030.10  E(vib)   ...       0.02 
freq.    1030.82  E(vib)   ...       0.02 
freq.    1063.62  E(vib)   ...       0.02 
freq.    1065.38  E(vib)   ...       0.02 
freq.    1065.82  E(vib)   ...       0.02 
freq.    1068.56  E(vib)   ...       0.02 
freq.    1071.93  E(vib)   ...       0.02 
freq.    1102.38  E(vib)   ...       0.02 
freq.    1111.10  E(vib)   ...       0.01 
freq.    1113.43  E(vib)   ...       0.01 
freq.    1115.37  E(vib)   ...       0.01 
freq.    1117.51  E(vib)   ...       0.01 
freq.    1120.98  E(vib)   ...       0.01 
freq.    1124.37  E(vib)   ...       0.01 
freq.    1171.34  E(vib)   ...       0.01 
freq.    1176.65  E(vib)   ...       0.01 
freq.    1176.86  E(vib)   ...       0.01 
freq.    1177.52  E(vib)   ...       0.01 
freq.    1179.44  E(vib)   ...       0.01 
freq.    1180.62  E(vib)   ...       0.01 
freq.    1180.90  E(vib)   ...       0.01 
freq.    1181.01  E(vib)   ...       0.01 
freq.    1183.53  E(vib)   ...       0.01 
freq.    1188.62  E(vib)   ...       0.01 
freq.    1248.56  E(vib)   ...       0.01 
freq.    1277.73  E(vib)   ...       0.01 
freq.    1282.57  E(vib)   ...       0.01 
freq.    1285.77  E(vib)   ...       0.01 
freq.    1297.24  E(vib)   ...       0.01 
freq.    1300.37  E(vib)   ...       0.01 
freq.    1302.68  E(vib)   ...       0.01 
freq.    1303.01  E(vib)   ...       0.01 
freq.    1304.30  E(vib)   ...       0.01 
freq.    1310.30  E(vib)   ...       0.01 
freq.    1314.69  E(vib)   ...       0.01 
freq.    1319.77  E(vib)   ...       0.01 
freq.    1320.53  E(vib)   ...       0.01 
freq.    1325.77  E(vib)   ...       0.01 
freq.    1332.27  E(vib)   ...       0.01 
freq.    1339.94  E(vib)   ...       0.01 
freq.    1345.79  E(vib)   ...       0.01 
freq.    1348.90  E(vib)   ...       0.01 
freq.    1365.40  E(vib)   ...       0.01 
freq.    1367.54  E(vib)   ...       0.01 
freq.    1376.06  E(vib)   ...       0.01 
freq.    1417.53  E(vib)   ...       0.00 
freq.    1469.29  E(vib)   ...       0.00 
freq.    1474.96  E(vib)   ...       0.00 
freq.    1475.91  E(vib)   ...       0.00 
freq.    1476.22  E(vib)   ...       0.00 
freq.    1478.34  E(vib)   ...       0.00 
freq.    1487.41  E(vib)   ...       0.00 
freq.    1496.23  E(vib)   ...       0.00 
freq.    1500.70  E(vib)   ...       0.00 
freq.    1501.47  E(vib)   ...       0.00 
freq.    1502.87  E(vib)   ...       0.00 
freq.    1504.39  E(vib)   ...       0.00 
freq.    1512.28  E(vib)   ...       0.00 
freq.    1518.51  E(vib)   ...       0.00 
freq.    1597.50  E(vib)   ...       0.00 
freq.    1611.89  E(vib)   ...       0.00 
freq.    1612.31  E(vib)   ...       0.00 
freq.    1613.67  E(vib)   ...       0.00 
freq.    1614.49  E(vib)   ...       0.00 
freq.    1619.62  E(vib)   ...       0.00 
freq.    1640.46  E(vib)   ...       0.00 
freq.    1645.57  E(vib)   ...       0.00 
freq.    1648.06  E(vib)   ...       0.00 
freq.    1649.06  E(vib)   ...       0.00 
freq.    1652.89  E(vib)   ...       0.00 
freq.    1656.84  E(vib)   ...       0.00 
freq.    1662.28  E(vib)   ...       0.00 
freq.    1683.62  E(vib)   ...       0.00 
freq.    1690.36  E(vib)   ...       0.00 
freq.    1698.02  E(vib)   ...       0.00 
freq.    1798.31  E(vib)   ...       0.00 
freq.    1832.53  E(vib)   ...       0.00 
freq.    2975.01  E(vib)   ...       0.00 
freq.    3202.16  E(vib)   ...       0.00 
freq.    3203.26  E(vib)   ...       0.00 
freq.    3203.69  E(vib)   ...       0.00 
freq.    3204.35  E(vib)   ...       0.00 
freq.    3205.77  E(vib)   ...       0.00 
freq.    3215.00  E(vib)   ...       0.00 
freq.    3216.13  E(vib)   ...       0.00 
freq.    3216.57  E(vib)   ...       0.00 
freq.    3217.93  E(vib)   ...       0.00 
freq.    3218.07  E(vib)   ...       0.00 
freq.    3218.60  E(vib)   ...       0.00 
freq.    3226.49  E(vib)   ...       0.00 
freq.    3228.46  E(vib)   ...       0.00 
freq.    3229.71  E(vib)   ...       0.00 
freq.    3230.02  E(vib)   ...       0.00 
freq.    3230.17  E(vib)   ...       0.00 
freq.    3230.27  E(vib)   ...       0.00 
freq.    3231.10  E(vib)   ...       0.00 
freq.    3235.62  E(vib)   ...       0.00 
freq.    3236.12  E(vib)   ...       0.00 
freq.    3236.30  E(vib)   ...       0.00 
freq.    3237.85  E(vib)   ...       0.00 
freq.    3266.83  E(vib)   ...       0.00 
freq.    3645.59  E(vib)   ...       0.00 
freq.    3735.70  E(vib)   ...       0.00 

------------
INNER ENERGY
------------

The inner energy is: U= E(el) + E(ZPE) + E(vib) + E(rot) + E(trans)
    E(el)   - is the total energy from the electronic structure calculation
              = E(kin-el) + E(nuc-el) + E(el-el) + E(nuc-nuc)
    E(ZPE)  - the the zero temperature vibrational energy from the frequency calculation
    E(vib)  - the the finite temperature correction to E(ZPE) due to population
              of excited vibrational states
    E(rot)  - is the rotational thermal energy
    E(trans)- is the translational thermal energy

Summary of contributions to the inner energy U:
Electronic energy                ...  -4781.69960024 Eh
Zero point energy                ...      0.59200461 Eh     371.49 kcal/mol
Thermal vibrational correction   ...      0.04498412 Eh      28.23 kcal/mol
Thermal rotational correction    ...      0.00141627 Eh       0.89 kcal/mol
Thermal translational correction ...      0.00141627 Eh       0.89 kcal/mol
-----------------------------------------------------------------------
Total thermal energy                  -4781.05977896 Eh


Summary of corrections to the electronic energy:
(perhaps to be used in another calculation)
Total thermal correction                  0.04781667 Eh      30.01 kcal/mol
Non-thermal (ZPE) correction              0.59200461 Eh     371.49 kcal/mol
-----------------------------------------------------------------------
Total correction                          0.63982128 Eh     401.49 kcal/mol


--------
ENTHALPY
--------

The enthalpy is H = U + kB*T
                kB is Boltzmann's constant
Total free energy                 ...  -4781.05977896 Eh 
Thermal Enthalpy correction       ...      0.00094421 Eh       0.59 kcal/mol
-----------------------------------------------------------------------
Total Enthalpy                    ...  -4781.05883475 Eh


Note: Only C1 symmetry has been detected, increase convergence thresholds 
      if your molecule has a higher symmetry. Symmetry factor of 1.0 is   
      used for the rotational entropy correction. 
 

Note: Rotational entropy computed according to Herzberg 
Infrared and Raman Spectra, Chapter V,1, Van Nostrand Reinhold, 1945 
Point Group:  C1, Symmetry Number:   1  
Rotational constants in cm-1:     0.002866     0.000723     0.000669 

Vibrational entropy computed according to the QRRHO of S. Grimme
Chem.Eur.J. 2012 18 9955


-------
ENTROPY
-------

The entropy contributions are T*S = T*(S(el)+S(vib)+S(rot)+S(trans))
     S(el)   - electronic entropy
     S(vib)  - vibrational entropy
     S(rot)  - rotational entropy
     S(trans)- translational entropy
The entropies will be listed as multiplied by the temperature to get
units of energy

Electronic entropy                ...      0.00000000 Eh      0.00 kcal/mol
Vibrational entropy               ...      0.08110865 Eh     50.90 kcal/mol
Rotational entropy                ...      0.01913965 Eh     12.01 kcal/mol
Translational entropy             ...      0.02190986 Eh     13.75 kcal/mol
-----------------------------------------------------------------------
Final entropy term                ...      0.12215815 Eh     76.66 kcal/mol

In case the symmetry of your molecule has not been determined correctly
or in case you have a reason to use a different symmetry number we print 
out the resulting rotational entropy values for sn=1,12 :
 --------------------------------------------------------
|  sn= 1 | S(rot)=       0.01913965 Eh     12.01 kcal/mol|
|  sn= 2 | S(rot)=       0.01848520 Eh     11.60 kcal/mol|
|  sn= 3 | S(rot)=       0.01810236 Eh     11.36 kcal/mol|
|  sn= 4 | S(rot)=       0.01783074 Eh     11.19 kcal/mol|
|  sn= 5 | S(rot)=       0.01762005 Eh     11.06 kcal/mol|
|  sn= 6 | S(rot)=       0.01744791 Eh     10.95 kcal/mol|
|  sn= 7 | S(rot)=       0.01730236 Eh     10.86 kcal/mol|
|  sn= 8 | S(rot)=       0.01717628 Eh     10.78 kcal/mol|
|  sn= 9 | S(rot)=       0.01706507 Eh     10.71 kcal/mol|
|  sn=10 | S(rot)=       0.01696560 Eh     10.65 kcal/mol|
|  sn=11 | S(rot)=       0.01687561 Eh     10.59 kcal/mol|
|  sn=12 | S(rot)=       0.01679345 Eh     10.54 kcal/mol|
 --------------------------------------------------------


-------------------
GIBBS FREE ENERGY
-------------------

The Gibbs free energy is G = H - T*S

Total enthalpy                    ...  -4781.05883475 Eh 
Total entropy correction          ...     -0.12215815 Eh    -76.66 kcal/mol
-----------------------------------------------------------------------
Final Gibbs free energy         ...  -4781.18099291 Eh

For completeness - the Gibbs free energy minus the electronic energy
G-E(el)                           ...      0.51860733 Eh    325.43 kcal/mol


Timings for individual modules:

Sum of individual times         ...    28421.664 sec (= 473.694 min)
GTO integral calculation        ...        1.786 sec (=   0.030 min)   0.0 %
SCF iterations                  ...     4908.655 sec (=  81.811 min)  17.3 %
Analytical frequency calculation...    23511.222 sec (= 391.854 min)  82.7 %
                             ****ORCA TERMINATED NORMALLY****
TOTAL RUN TIME: 0 days 7 hours 53 minutes 42 seconds 838 msec
