
                                 *****************
                                 * O   R   C   A *
                                 *****************

                                            #,                                       
                                            ###                                      
                                            ####                                     
                                            #####                                    
                                            ######                                   
                                           ########,                                 
                                     ,,################,,,,,                         
                               ,,#################################,,                 
                          ,,##########################################,,             
                       ,#########################################, ''#####,          
                    ,#############################################,,   '####,        
                  ,##################################################,,,,####,       
                ,###########''''           ''''###############################       
              ,#####''   ,,,,##########,,,,          '''####'''          '####       
            ,##' ,,,,###########################,,,                        '##       
           ' ,,###''''                  '''############,,,                           
         ,,##''                                '''############,,,,        ,,,,,,###''
      ,#''                                            '''#######################'''  
     '                                                          ''''####''''         
             ,#######,   #######,   ,#######,      ##                                
            ,#'     '#,  ##    ##  ,#'     '#,    #''#        ######   ,####,        
            ##       ##  ##   ,#'  ##            #'  '#       #        #'  '#        
            ##       ##  #######   ##           ,######,      #####,   #    #        
            '#,     ,#'  ##    ##  '#,     ,#' ,#      #,         ##   #,  ,#        
             '#######'   ##     ##  '#######'  #'      '#     #####' # '####'        



                  #######################################################
                  #                        -***-                        #
                  #          Department of theory and spectroscopy      #
                  #    Directorship and core code : Frank Neese         #
                  #        Max Planck Institute fuer Kohlenforschung    #
                  #                Kaiser Wilhelm Platz 1               #
                  #                 D-45470 Muelheim/Ruhr               #
                  #                      Germany                        #
                  #                                                     #
                  #                  All rights reserved                #
                  #                        -***-                        #
                  #######################################################


                         Program Version 5.0.4 -  RELEASE  -


 With contributions from (in alphabetic order):
   Daniel Aravena         : Magnetic Suceptibility
   Michael Atanasov       : Ab Initio Ligand Field Theory (pilot matlab implementation)
   Alexander A. Auer      : GIAO ZORA, VPT2 properties, NMR spectrum
   Ute Becker             : Parallelization
   Giovanni Bistoni       : ED, misc. LED, open-shell LED, HFLD
   Martin Brehm           : Molecular dynamics
   Dmytro Bykov           : SCF Hessian
   Vijay G. Chilkuri      : MRCI spin determinant printing, contributions to CSF-ICE
   Dipayan Datta          : RHF DLPNO-CCSD density
   Achintya Kumar Dutta   : EOM-CC, STEOM-CC
   Dmitry Ganyushin       : Spin-Orbit,Spin-Spin,Magnetic field MRCI
   Miquel Garcia          : C-PCM and meta-GGA Hessian, CC/C-PCM, Gaussian charge scheme
   Yang Guo               : DLPNO-NEVPT2, F12-NEVPT2, CIM, IAO-localization
   Andreas Hansen         : Spin unrestricted coupled pair/coupled cluster methods
   Benjamin Helmich-Paris : MC-RPA, TRAH-SCF, COSX integrals
   Lee Huntington         : MR-EOM, pCC
   Robert Izsak           : Overlap fitted RIJCOSX, COSX-SCS-MP3, EOM
   Marcus Kettner         : VPT2
   Christian Kollmar      : KDIIS, OOCD, Brueckner-CCSD(T), CCSD density, CASPT2, CASPT2-K
   Simone Kossmann        : Meta GGA functionals, TD-DFT gradient, OOMP2, MP2 Hessian
   Martin Krupicka        : Initial AUTO-CI
   Lucas Lang             : DCDCAS
   Marvin Lechner         : AUTO-CI (C++ implementation), FIC-MRCC
   Dagmar Lenk            : GEPOL surface, SMD
   Dimitrios Liakos       : Extrapolation schemes; Compound Job, initial MDCI parallelization
   Dimitrios Manganas     : Further ROCIS development; embedding schemes
   Dimitrios Pantazis     : SARC Basis sets
   Anastasios Papadopoulos: AUTO-CI, single reference methods and gradients
   Taras Petrenko         : DFT Hessian,TD-DFT gradient, ASA, ECA, R-Raman, ABS, FL, XAS/XES, NRVS
   Peter Pinski           : DLPNO-MP2, DLPNO-MP2 Gradient
   Christoph Reimann      : Effective Core Potentials
   Marius Retegan         : Local ZFS, SOC
   Christoph Riplinger    : Optimizer, TS searches, QM/MM, DLPNO-CCSD(T), (RO)-DLPNO pert. Triples
   Tobias Risthaus        : Range-separated hybrids, TD-DFT gradient, RPA, STAB
   Michael Roemelt        : Original ROCIS implementation
   Masaaki Saitow         : Open-shell DLPNO-CCSD energy and density
   Barbara Sandhoefer     : DKH picture change effects
   Avijit Sen             : IP-ROCIS
   Kantharuban Sivalingam : CASSCF convergence, NEVPT2, FIC-MRCI
   Bernardo de Souza      : ESD, SOC TD-DFT
   Georgi Stoychev        : AutoAux, RI-MP2 NMR, DLPNO-MP2 response
   Willem Van den Heuvel  : Paramagnetic NMR
   Boris Wezisla          : Elementary symmetry handling
   Frank Wennmohs         : Technical directorship


 We gratefully acknowledge several colleagues who have allowed us to
 interface, adapt or use parts of their codes:
   Stefan Grimme, W. Hujo, H. Kruse, P. Pracht,  : VdW corrections, initial TS optimization,
                  C. Bannwarth, S. Ehlert          DFT functionals, gCP, sTDA/sTD-DF
   Ed Valeev, F. Pavosevic, A. Kumar             : LibInt (2-el integral package), F12 methods
   Garnet Chan, S. Sharma, J. Yang, R. Olivares  : DMRG
   Ulf Ekstrom                                   : XCFun DFT Library
   Mihaly Kallay                                 : mrcc  (arbitrary order and MRCC methods)
   Jiri Pittner, Ondrej Demel                    : Mk-CCSD
   Frank Weinhold                                : gennbo (NPA and NBO analysis)
   Christopher J. Cramer and Donald G. Truhlar   : smd solvation model
   Lars Goerigk                                  : TD-DFT with DH, B97 family of functionals
   V. Asgeirsson, H. Jonsson                     : NEB implementation
   FAccTs GmbH                                   : IRC, NEB, NEB-TS, DLPNO-Multilevel, CI-OPT
                                                   MM, QMMM, 2- and 3-layer-ONIOM, Crystal-QMMM,
                                                   LR-CPCM, SF, NACMEs, symmetry and pop. for TD-DFT,
                                                   nearIR, NL-DFT gradient (VV10), updates on ESD,
                                                   ML-optimized integration grids
   S Lehtola, MJT Oliveira, MAL Marques          : LibXC Library
   Liviu Ungur et al                             : ANISO software


 Your calculation uses the libint2 library for the computation of 2-el integrals
 For citations please refer to: http://libint.valeyev.net

 Your ORCA version has been built with support for libXC version: 5.1.0
 For citations please refer to: https://tddft.org/programs/libxc/

 This ORCA versions uses:
   CBLAS   interface :  Fast vector & matrix operations
   LAPACKE interface :  Fast linear algebra routines
   SCALAPACK package :  Parallel linear algebra routines
   Shared memory     :  Shared parallel matrices
   BLAS/LAPACK       :  OpenBLAS 0.3.15  USE64BITINT DYNAMIC_ARCH NO_AFFINITY Zen SINGLE_THREADED
        Core in use  :  Zen
   Copyright (c) 2011-2014, The OpenBLAS Project


================================================================================

----- Orbital basis set information -----
Your calculation utilizes the basis: 6-31++G(d,p)
   H-He, Li-Ne : W. J. Hehre, R. Ditchfield and J.A. Pople, J. Chem. Phys. 56, 2257 (1972).
                 Note: He and Ne are unpublished basis sets taken from the Gaussian program.
                 Note: Li and B from J. D. Dill and J. A. Pople, J. Chem. Phys. 62, 2921 (1975).
   Na - Ar     : M. M. Francl, W. J. Pietro, W. J. Hehre, J. S. Binkley, M. S. Gordon, 
                 D. J. DeFrees and J. A. Pople, J. Chem. Phys. 77, 3654 (1982).
   K - Zn      : V. A. Rassolov, J. A. Pople, M. A. Ratner, and T. L. Windus, J. Chem. Phys. 109, 1223 (1998).
   Additional Pol./Diff. from the 6-311G equivalent.

----- AuxJ basis set information -----
Your calculation utilizes the auxiliary basis: def2/J
   F. Weigend, Phys. Chem. Chem. Phys. 8, 1057 (2006).

================================================================================
                                        WARNINGS
                       Please study these warnings very carefully!
================================================================================

WARNING: Old DensityContainer found on disk!
         Will remove this file - 
         If you want to keep old densities, please start your calculation with a different basename. 


INFO   : the flag for use of the SHARK integral package has been found!

================================================================================
                                       INPUT FILE
================================================================================
NAME = 2picolinate_water_freq.inp
|  1> # avogadro generated ORCA file
|  2> # C36H26N6O13Cr2 | Frequencies | B3LYP/6-31G(d)
|  3> # 
|  4> ! B3LYP 6-31++G(d,p) FREQ
|  5> 
|  6> %maxcore 1024
|  7> 
|  8> %pal
|  9>    nprocs 8
| 10> end
| 11> 
| 12> * xyz 0 1
| 13>    Cr     6.154459   -0.083930    1.251714
| 14>    O      7.298156    0.168935   -0.373602
| 15>    O      4.847429   -0.578275    2.704176
| 16>    O      7.509943    0.375475    2.529305
| 17>    O      7.377257    0.178110   -2.621723
| 18>    O      4.404102   -2.095465    4.301449
| 19>    O      8.497304    2.125059    3.693458
| 20>    N      4.758464   -0.435396   -0.309524
| 21>    N      6.586475   -2.128359    1.499489
| 22>    N      5.742718    1.979733    1.524280
| 23>    C      5.296810   -0.314998   -1.545181
| 24>    C      5.970520   -2.659967    2.581613
| 25>    C      6.419132    2.497679    2.574521
| 26>    C      6.768471    0.038442   -1.557689
| 27>    C      4.995327   -1.734077    3.273330
| 28>    C      7.257170    1.465664    3.314073
| 29>    C      3.460675   -0.750757   -0.172669
| 30>    C      7.471208   -2.860227    0.806842
| 31>    C      4.927446    2.768978    0.800556
| 32>    C      4.541892   -0.505195   -2.695953
| 33>    C      6.229877   -3.956213    3.008512
| 34>    C      6.302689    3.835740    2.932741
| 35>    C      2.641089   -0.953169   -1.282304
| 36>    C      7.777664   -4.170656    1.174331
| 37>    C      4.767041    4.118955    1.095567
| 38>    C      3.188841   -0.829244   -2.560414
| 39>    C      7.150297   -4.725343    2.290259
| 40>    C      5.467344    4.660407    2.176316
| 41>    H      3.090171   -0.833901    0.843187
| 42>    H      7.939366   -2.377650   -0.043953
| 43>    H      4.406003    2.300704   -0.026835
| 44>    H      5.012933   -0.399210   -3.666211
| 45>    H      5.719299   -4.341421    3.883315
| 46>    H      6.858628    4.216765    3.781871
| 47>    H      1.596054   -1.204206   -1.138388
| 48>    H      8.497717   -4.735209    0.592407
| 49>    H      4.106806    4.726965    0.487398
| 50>    H      2.571826   -0.982611   -3.440133
| 51>    H      7.375140   -5.741049    2.599887
| 52>    H      5.363366    5.711174    2.428186
| 53>    O      6.146041   -2.174238    6.616469
| 54>    H      7.066092   -2.248103    6.300024
| 55>    H      5.587286   -2.190756    5.818567
| 56>    Cr    12.501552   -1.097006    7.182388
| 57>    O     11.894824   -0.449469    8.969286
| 58>    O     13.401596   -1.711627    5.512205
| 59>    O     10.938006   -2.308634    6.942601
| 60>    O     12.306286    0.954660   10.679250
| 61>    O     14.834995   -3.194221    4.612161
| 62>    O      8.905601   -2.552700    6.022543
| 63>    N     13.961025    0.363920    7.596848
| 64>    N     13.739378   -2.622017    7.939502
| 65>    N     11.213127    0.151090    6.100506
| 66>    C     13.783600    0.968584    8.795762
| 67>    C     14.454005   -3.249098    6.975218
| 68>    C     10.060920   -0.467111    5.745629
| 69>    C     12.579071    0.484712    9.573096
| 70>    C     14.240863   -2.709756    5.577185
| 71>    C      9.918313   -1.882896    6.259824
| 72>    C     14.998848    0.711641    6.818473
| 73>    C     13.852533   -3.013033    9.218495
| 74>    C     11.431685    1.407532    5.667745
| 75>    C     14.652396    1.949145    9.256546
| 76>    C     15.314779   -4.299042    7.268417
| 77>    C      9.098836    0.127352    4.949946
| 78>    C     15.909516    1.688808    7.216478
| 79>    C     14.696040   -4.061102    9.585509
| 80>    C     10.523307    2.081024    4.867595
| 81>    C     15.734852    2.315366    8.451303
| 82>    C     15.437851   -4.711453    8.598309
| 83>    C      9.335541    1.435631    4.488275
| 84>    H     15.084779    0.195385    5.869028
| 85>    H     13.252245   -2.476272    9.944628
| 86>    H     12.360267    1.875969    5.972839
| 87>    H     14.474781    2.406343   10.222968
| 88>    H     15.868708   -4.772791    6.466345
| 89>    H      8.220802   -0.439006    4.674601
| 90>    H     16.736095    1.946622    6.563775
| 91>    H     14.764478   -4.353225   10.627511
| 92>    H     10.728894    3.090450    4.530334
| 93>    H     16.431214    3.078723    8.783549
| 94>    H     16.102929   -5.528859    8.858351
| 95>    H      6.749185    1.198268    4.256821
| 96> *
| 97> 
| 98> 
| 99> 
|100>                          ****END OF INPUT****
================================================================================

                       ****************************
                       * Single Point Calculation *
                       ****************************

---------------------------------
CARTESIAN COORDINATES (ANGSTROEM)
---------------------------------
  Cr     6.154459   -0.083930    1.251714
  O      7.298156    0.168935   -0.373602
  O      4.847429   -0.578275    2.704176
  O      7.509943    0.375475    2.529305
  O      7.377257    0.178110   -2.621723
  O      4.404102   -2.095465    4.301449
  O      8.497304    2.125059    3.693458
  N      4.758464   -0.435396   -0.309524
  N      6.586475   -2.128359    1.499489
  N      5.742718    1.979733    1.524280
  C      5.296810   -0.314998   -1.545181
  C      5.970520   -2.659967    2.581613
  C      6.419132    2.497679    2.574521
  C      6.768471    0.038442   -1.557689
  C      4.995327   -1.734077    3.273330
  C      7.257170    1.465664    3.314073
  C      3.460675   -0.750757   -0.172669
  C      7.471208   -2.860227    0.806842
  C      4.927446    2.768978    0.800556
  C      4.541892   -0.505195   -2.695953
  C      6.229877   -3.956213    3.008512
  C      6.302689    3.835740    2.932741
  C      2.641089   -0.953169   -1.282304
  C      7.777664   -4.170656    1.174331
  C      4.767041    4.118955    1.095567
  C      3.188841   -0.829244   -2.560414
  C      7.150297   -4.725343    2.290259
  C      5.467344    4.660407    2.176316
  H      3.090171   -0.833901    0.843187
  H      7.939366   -2.377650   -0.043953
  H      4.406003    2.300704   -0.026835
  H      5.012933   -0.399210   -3.666211
  H      5.719299   -4.341421    3.883315
  H      6.858628    4.216765    3.781871
  H      1.596054   -1.204206   -1.138388
  H      8.497717   -4.735209    0.592407
  H      4.106806    4.726965    0.487398
  H      2.571826   -0.982611   -3.440133
  H      7.375140   -5.741049    2.599887
  H      5.363366    5.711174    2.428186
  O      6.146041   -2.174238    6.616469
  H      7.066092   -2.248103    6.300024
  H      5.587286   -2.190756    5.818567
  Cr    12.501552   -1.097006    7.182388
  O     11.894824   -0.449469    8.969286
  O     13.401596   -1.711627    5.512205
  O     10.938006   -2.308634    6.942601
  O     12.306286    0.954660   10.679250
  O     14.834995   -3.194221    4.612161
  O      8.905601   -2.552700    6.022543
  N     13.961025    0.363920    7.596848
  N     13.739378   -2.622017    7.939502
  N     11.213127    0.151090    6.100506
  C     13.783600    0.968584    8.795762
  C     14.454005   -3.249098    6.975218
  C     10.060920   -0.467111    5.745629
  C     12.579071    0.484712    9.573096
  C     14.240863   -2.709756    5.577185
  C      9.918313   -1.882896    6.259824
  C     14.998848    0.711641    6.818473
  C     13.852533   -3.013033    9.218495
  C     11.431685    1.407532    5.667745
  C     14.652396    1.949145    9.256546
  C     15.314779   -4.299042    7.268417
  C      9.098836    0.127352    4.949946
  C     15.909516    1.688808    7.216478
  C     14.696040   -4.061102    9.585509
  C     10.523307    2.081024    4.867595
  C     15.734852    2.315366    8.451303
  C     15.437851   -4.711453    8.598309
  C      9.335541    1.435631    4.488275
  H     15.084779    0.195385    5.869028
  H     13.252245   -2.476272    9.944628
  H     12.360267    1.875969    5.972839
  H     14.474781    2.406343   10.222968
  H     15.868708   -4.772791    6.466345
  H      8.220802   -0.439006    4.674601
  H     16.736095    1.946622    6.563775
  H     14.764478   -4.353225   10.627511
  H     10.728894    3.090450    4.530334
  H     16.431214    3.078723    8.783549
  H     16.102929   -5.528859    8.858351
  H      6.749185    1.198268    4.256821

----------------------------
CARTESIAN COORDINATES (A.U.)
----------------------------
  NO LB      ZA    FRAG     MASS         X           Y           Z
   0 Cr   24.0000    0    52.000   11.630242   -0.158605    2.365397
   1 O     8.0000    0    15.999   13.791516    0.319241   -0.706005
   2 O     8.0000    0    15.999    9.160313   -1.092781    5.110152
   3 O     8.0000    0    15.999   14.191736    0.709545    4.779694
   4 O     8.0000    0    15.999   13.940995    0.336579   -4.954338
   5 O     8.0000    0    15.999    8.322547   -3.959855    8.128561
   6 O     8.0000    0    15.999   16.057577    4.015780    6.979624
   7 N     7.0000    0    14.007    8.992194   -0.822779   -0.584916
   8 N     7.0000    0    14.007   12.446634   -4.022016    2.833624
   9 N     7.0000    0    14.007   10.852164    3.741153    2.880472
  10 C     6.0000    0    12.011   10.009520   -0.595260   -2.919969
  11 C     6.0000    0    12.011   11.282648   -5.026609    4.878542
  12 C     6.0000    0    12.011   12.130401    4.719929    4.865140
  13 C     6.0000    0    12.011   12.790557    0.072645   -2.943606
  14 C     6.0000    0    12.011    9.439800   -3.276931    6.185697
  15 C     6.0000    0    12.011   13.714064    2.769704    6.262690
  16 C     6.0000    0    12.011    6.539728   -1.418725   -0.326297
  17 C     6.0000    0    12.011   14.118537   -5.405046    1.524710
  18 C     6.0000    0    12.011    9.311523    5.232610    1.512832
  19 C     6.0000    0    12.011    8.582932   -0.954680   -5.094613
  20 C     6.0000    0    12.011   11.772761   -7.476159    5.685264
  21 C     6.0000    0    12.011   11.910356    7.248498    5.542077
  22 C     6.0000    0    12.011    4.990935   -1.801228   -2.423203
  23 C     6.0000    0    12.011   14.697655   -7.881398    2.219164
  24 C     6.0000    0    12.011    9.008402    7.783697    2.070322
  25 C     6.0000    0    12.011    6.026036   -1.567044   -4.838481
  26 C     6.0000    0    12.011   13.512103   -8.929604    4.327962
  27 C     6.0000    0    12.011   10.331783    8.806893    4.112641
  28 H     1.0000    0     1.008    5.839577   -1.575845    1.593393
  29 H     1.0000    0     1.008   15.003227   -4.493107   -0.083059
  30 H     1.0000    0     1.008    8.326139    4.347700   -0.050711
  31 H     1.0000    0     1.008    9.473070   -0.754398   -6.928135
  32 H     1.0000    0     1.008   10.807909   -8.204097    7.338402
  33 H     1.0000    0     1.008   12.960929    7.968531    7.146700
  34 H     1.0000    0     1.008    3.016105   -2.275620   -2.151242
  35 H     1.0000    0     1.008   16.058358   -8.948248    1.119487
  36 H     1.0000    0     1.008    7.760739    8.932669    0.921049
  37 H     1.0000    0     1.008    4.860047   -1.856866   -6.500909
  38 H     1.0000    0     1.008   13.936995  -10.849010    4.913074
  39 H     1.0000    0     1.008   10.135293   10.792555    4.588607
  40 O     8.0000    0    15.999   11.614334   -4.108714   12.503314
  41 H     1.0000    0     1.008   13.352979   -4.248299   11.905320
  42 H     1.0000    0     1.008   10.558440   -4.139929   10.995498
  43 Cr   24.0000    0    52.000   23.624510   -2.073041   13.572746
  44 O     8.0000    0    15.999   22.477960   -0.849373   16.949494
  45 O     8.0000    0    15.999   25.325346   -3.234506   10.416558
  46 O     8.0000    0    15.999   20.669836   -4.362686   13.119615
  47 O     8.0000    0    15.999   23.255510    1.804046   20.180858
  48 O     8.0000    0    15.999   28.034078   -6.036203    8.715721
  49 O     8.0000    0    15.999   16.829147   -4.823904   11.380957
  50 N     7.0000    0    14.007   26.382514    0.687709   14.355962
  51 N     7.0000    0    14.007   25.963662   -4.954894   15.003484
  52 N     7.0000    0    14.007   21.189739    0.285519   11.528286
  53 C     6.0000    0    12.011   26.047229    1.830358   16.621581
  54 C     6.0000    0    12.011   27.314111   -6.139905   13.181252
  55 C     6.0000    0    12.011   19.012383   -0.882712   10.857665
  56 C     6.0000    0    12.011   23.770999    0.915973   18.090530
  57 C     6.0000    0    12.011   26.911331   -5.120697   10.539352
  58 C     6.0000    0    12.011   18.742895   -3.558158   11.829353
  59 C     6.0000    0    12.011   28.343715    1.344807   12.885047
  60 C     6.0000    0    12.011   26.177494   -5.693807   17.420431
  61 C     6.0000    0    12.011   21.602754    2.659850   10.710486
  62 C     6.0000    0    12.011   27.689016    3.683350   17.492337
  63 C     6.0000    0    12.011   28.940738   -8.124012   13.735318
  64 C     6.0000    0    12.011   17.194308    0.240660    9.354042
  65 C     6.0000    0    12.011   30.064628    3.191385   13.637167
  66 C     6.0000    0    12.011   27.771491   -7.674371   18.113987
  67 C     6.0000    0    12.011   19.886168    3.932565    9.198421
  68 C     6.0000    0    12.011   29.734561    4.375408   15.970648
  69 C     6.0000    0    12.011   29.173310   -8.903356   16.248449
  70 C     6.0000    0    12.011   17.641616    2.712949    8.481611
  71 H     1.0000    0     1.008   28.506101    0.369224   11.090856
  72 H     1.0000    0     1.008   25.043114   -4.679476   18.792623
  73 H     1.0000    0     1.008   23.357520    3.545068   11.287030
  74 H     1.0000    0     1.008   27.353372    4.547329   19.318610
  75 H     1.0000    0     1.008   29.987512   -9.019268   12.219621
  76 H     1.0000    0     1.008   15.535064   -0.829601    8.833716
  77 H     1.0000    0     1.008   31.626636    3.678582   12.403737
  78 H     1.0000    0     1.008   27.900820   -8.226403   20.083085
  79 H     1.0000    0     1.008   20.274671    5.840104    8.561091
  80 H     1.0000    0     1.008   31.050495    5.817943   16.598502
  81 H     1.0000    0     1.008   30.430126  -10.448029   16.739857
  82 H     1.0000    0     1.008   12.754111    2.264398    8.044226

--------------------------------
INTERNAL COORDINATES (ANGSTROEM)
--------------------------------
 Cr     0   0   0     0.000000000000     0.00000000     0.00000000
 O      1   0   0     2.003406008749     0.00000000     0.00000000
 O      1   2   0     2.015527291150   170.33098318     0.00000000
 O      1   2   3     1.918496440331    96.12443455   148.36485877
 O      2   1   4     2.249530879865   146.23835067   184.31732686
 O      3   1   4     2.247150498199   143.68355932   289.96731549
 O      4   1   2     2.321891066520   144.56475329    88.20730473
 N      1   2   5     2.123627670244    78.44738969     0.77938518
 N      1   2   5     2.104214868050    95.79411492    93.16146817
 N      1   2   5     2.121916080576    95.29203861   264.34263120
 C      8   1   2     1.353203722936   113.27028631   359.68362022
 C      9   1   2     1.353883295955   112.47047643   178.72897282
 C     10   1   2     1.352335060698   112.03595585   253.53792083
 C      5   2   1     1.233813558515    28.39791199   359.44357751
 C      6   3   1     1.239829409770    28.32151859   343.21364854
 C      4   1   2     1.366845660297   116.27466889   118.35729740
 C      8   1   2     1.342549120095   126.82564158   179.59529055
 C      9   1   2     1.340948588620   127.22261364     5.99712659
 C     10   1   2     1.345864975466   128.22797623    73.54802892
 C     11   8   1     1.389371182052   121.86895319   180.11286381
 C     12   9   1     1.389158918974   121.80800346   186.86401557
 C     13  10   1     1.390067545255   121.79662740   179.76396519
 C     17   8   1     1.394267428568   121.41290499   179.75130955
 C     18   9   1     1.395058281613   121.43586003   172.29307166
 C     19  10   1     1.391114357152   121.66095928   180.59778338
 C     23  17   8     1.396049723767   119.01871587     0.26715451
 C     24  18   9     1.395192575182   119.03660896   359.78693216
 C     22  13  10     1.396443951807   118.61831983   359.64864689
 H     17   8   1     1.084504288368   116.34256805     0.00000000
 H     18   9   1     1.084391352750   116.56565230   352.83359066
 H     19  10   1     1.084324309515   116.63946409     0.30011238
 H     20  11   8     1.083749523861   119.47085519   180.01076784
 H     21  12   9     1.083676790449   119.45893781   179.64416905
 H     22  13  10     1.084098694421   119.81532661   179.89634168
 H     23  17   8     1.084356740953   119.63628123   180.16618191
 H     24  18   9     1.084357853476   119.57446428   179.98802181
 H     25  19  10     1.084184462112   119.70109460   179.60327414
 H     26  23  17     1.085419027784   120.42665858   179.95627611
 H     27  24  18     1.085395113067   120.46835274   180.31038671
 H     28  22  13     1.085523472649   120.21554427   180.49051493
 O      6   3   1     2.898253657921   117.87456916    69.40053670
 H     41   6   3     0.975749618935   108.04312312   307.37786112
 H     41   6   3     0.974231797856     3.19753347   259.17898944
 Cr    42  41   6     5.625639158665   147.63814647   149.56408605
 O     44  42  41     1.995100873329    85.01249330     7.76430544
 O     44  42  41     1.994329318108   103.98285546   186.19995219
 O     44  42  41     1.992540165183    25.64786415   117.39768815
 O     45  44  42     2.250523518513   145.83410742   207.68400304
 O     46  44  42     2.250065968805   145.64527391   246.48696705
 O     42  41   6     1.885091085028   168.54661480   205.96485035
 N     44  42  41     2.106215398957   147.38405166   307.19768363
 N     44  42  41     2.105016238748   118.44619602   101.06370936
 N     44  42  41     2.094815330230    56.40246862   268.73341860
 C     51  44  42     1.354434554682   113.14568792    62.68035707
 C     52  44  42     1.354166150199   112.93496676    98.36646116
 C     53  44  42     1.354876796015   112.73519518   345.05881218
 C     48  45  44     1.232412045805    28.42858470     0.83695497
 C     49  46  44     1.232465208525    28.43997932   357.59418735
 C     50  42  41     1.237143995791   133.08482416   270.31752113
 C     51  44  42     1.343076361863   126.94029195   241.96793574
 C     52  44  42     1.342207383503   127.11089968   279.53029145
 C     53  44  42     1.346735379297   128.46228765   169.59425159
 C     54  51  44     1.388750610798   121.80054462   179.21919697
 C     55  52  44     1.388985217997   121.78728351   181.01460974
 C     56  53  44     1.382788240445   123.10969900   184.52492688
 C     60  51  44     1.393764518180   121.39289455   180.80683142
 C     61  52  44     1.394507785567   121.38148467   178.72577836
 C     62  53  44     1.385273289805   122.19317439   174.80099361
 C     66  60  51     1.395663004054   119.05367278     0.03800430
 C     67  61  52     1.395637425309   119.04947729     0.14045264
 C      7   4   1     1.345245813538   100.08059439   174.67804096
 H     60  51  44     1.084135693685   116.45577494     1.01992506
 H     61  52  44     1.084309544251   116.56728791   359.03466347
 H     62  53  44     1.083872733548   116.85889135   354.94021812
 H     63  54  51     1.083765925610   119.42016359   180.11029094
 H     64  55  52     1.083787315494   119.40269902   180.04959320
 H     65  56  53     1.080518374830   119.12210231   177.63613682
 H     66  60  51     1.084307201879   119.53062294   180.05278575
 H     67  61  52     1.084337482049   119.57491906   180.03808534
 H     68  62  53     1.083951957499   120.53741884   180.31055262
 H     69  66  60     1.085366919069   120.41668827   179.94940126
 H     70  67  61     1.085404605059   120.47430288   179.88522402
 H     16   4   1     1.103776776593   112.47449821    91.13300063

---------------------------
INTERNAL COORDINATES (A.U.)
---------------------------
 Cr     0   0   0     0.000000000000     0.00000000     0.00000000
 O      1   0   0     3.785888691587     0.00000000     0.00000000
 O      1   2   0     3.808794595717   170.33098318     0.00000000
 O      1   2   3     3.625432861128    96.12443455   148.36485877
 O      2   1   4     4.250997292744   146.23835067   184.31732686
 O      3   1   4     4.246499023302   143.68355932   289.96731549
 O      4   1   2     4.387738228521   144.56475329    88.20730473
 N      1   2   5     4.013074707178    78.44738969     0.77938518
 N      1   2   5     3.976389827539    95.79411492    93.16146817
 N      1   2   5     4.009840271452    95.29203861   264.34263120
 C      8   1   2     2.557184439752   113.27028631   359.68362022
 C      9   1   2     2.558468646645   112.47047643   178.72897282
 C     10   1   2     2.555542906019   112.03595585   253.53792083
 C      5   2   1     2.331569725913    28.39791199   359.44357751
 C      6   3   1     2.342938037246    28.32151859   343.21364854
 C      4   1   2     2.582963965301   116.27466889   118.35729740
 C      8   1   2     2.537050158316   126.82564158   179.59529055
 C      9   1   2     2.534025592160   127.22261364     5.99712659
 C     10   1   2     2.543316216867   128.22797623    73.54802892
 C     11   8   1     2.625531032441   121.86895319   180.11286381
 C     12   9   1     2.625129913356   121.80800346   186.86401557
 C     13  10   1     2.626846968183   121.79662740   179.76396519
 C     17   8   1     2.634783597440   121.41290499   179.75130955
 C     18   9   1     2.636278093108   121.43586003   172.29307166
 C     19  10   1     2.628825155984   121.66095928   180.59778338
 C     23  17   8     2.638151647255   119.01871587     0.26715451
 C     24  18   9     2.636531871174   119.03660896   359.78693216
 C     22  13  10     2.638896630286   118.61831983   359.64864689
 H     17   8   1     2.049416096078   116.34256805     0.00000000
 H     18   9   1     2.049202678689   116.56565230   352.83359066
 H     19  10   1     2.049075985337   116.63946409     0.30011238
 H     20  11   8     2.047989797866   119.47085519   180.01076784
 H     21  12   9     2.047852351635   119.45893781   179.64416905
 H     22  13  10     2.048649634598   119.81532661   179.89634168
 H     23  17   8     2.049137271872   119.63628123   180.16618191
 H     24  18   9     2.049139374235   119.57446428   179.98802181
 H     25  19  10     2.048811712045   119.70109460   179.60327414
 H     26  23  17     2.051144703058   120.42665858   179.95627611
 H     27  24  18     2.051099510792   120.46835274   180.31038671
 H     28  22  13     2.051342075251   120.21554427   180.49051493
 O      6   3   1     5.476905680105   117.87456916    69.40053670
 H     41   6   3     1.843899555064   108.04312312   307.37786112
 H     41   6   3     1.841031288905     3.19753347   259.17898944
 Cr    42  41   6    10.630917338140   147.63814647   149.56408605
 O     44  42  41     3.770194260138    85.01249330     7.76430544
 O     44  42  41     3.768736232074   103.98285546   186.19995219
 O     44  42  41     3.765355223035    25.64786415   117.39768815
 O     45  44  42     4.252873107939   145.83410742   207.68400304
 O     46  44  42     4.252008464297   145.64527391   246.48696705
 O     42  41   6     3.562305888199   168.54661480   205.96485035
 N     44  42  41     3.980170283077   147.38405166   307.19768363
 N     44  42  41     3.977904198691   118.44619602   101.06370936
 N     44  42  41     3.958627275274    56.40246862   268.73341860
 C     51  44  42     2.559510374669   113.14568792    62.68035707
 C     52  44  42     2.559003163703   112.93496676    98.36646116
 C     53  44  42     2.560346089672   112.73519518   345.05881218
 C     48  45  44     2.328921250717    28.42858470     0.83695497
 C     49  46  44     2.329021713699    28.43997932   357.59418735
 C     50  42  41     2.337863340269   133.08482416   270.31752113
 C     51  44  42     2.538046500864   126.94029195   241.96793574
 C     52  44  42     2.536404369748   127.11089968   279.53029145
 C     53  44  42     2.544961041733   128.46228765   169.59425159
 C     54  51  44     2.624358322725   121.80054462   179.21919697
 C     55  52  44     2.624801666078   121.78728351   181.01460974
 C     56  53  44     2.613091075649   123.10969900   184.52492688
 C     60  51  44     2.633833234537   121.39289455   180.80683142
 C     61  52  44     2.635237806342   121.38148467   178.72577836
 C     62  53  44     2.617787138368   122.19317439   174.80099361
 C     66  60  51     2.637420852908   119.05367278     0.03800430
 C     67  61  52     2.637372516084   119.04947729     0.14045264
 C      7   4   1     2.542146170391   100.08059439   174.67804096
 H     60  51  44     2.048719553074   116.45577494     1.01992506
 H     61  52  44     2.049048083032   116.56728791   359.03466347
 H     62  53  44     2.048222630430   116.85889135   354.94021812
 H     63  54  51     2.048020792678   119.42016359   180.11029094
 H     64  55  52     2.048061213702   119.40269902   180.04959320
 H     65  56  53     2.041883811098   119.12210231   177.63613682
 H     66  60  51     2.049043656589   119.53062294   180.05278575
 H     67  61  52     2.049100877819   119.57491906   180.03808534
 H     68  62  53     2.048372342001   120.53741884   180.31055262
 H     69  66  60     2.051046231858   120.41668827   179.94940126
 H     70  67  61     2.051117448059   120.47430288   179.88522402
 H     16   4   1     2.085835820742   112.47449821    91.13300063

---------------------
BASIS SET INFORMATION
---------------------
There are 5 groups of distinct atoms

 Group   1 Type Cr  : 23s18p5d1f contracted to 6s6p3d1f pattern {666311/663111/311/1}
 Group   2 Type O   : 11s5p1d contracted to 4s3p1d pattern {6311/311/1}
 Group   3 Type N   : 11s5p1d contracted to 4s3p1d pattern {6311/311/1}
 Group   4 Type C   : 11s5p1d contracted to 4s3p1d pattern {6311/311/1}
 Group   5 Type H   : 5s1p contracted to 3s1p pattern {311/1}

Atom   0Cr   basis set group =>   1
Atom   1O    basis set group =>   2
Atom   2O    basis set group =>   2
Atom   3O    basis set group =>   2
Atom   4O    basis set group =>   2
Atom   5O    basis set group =>   2
Atom   6O    basis set group =>   2
Atom   7N    basis set group =>   3
Atom   8N    basis set group =>   3
Atom   9N    basis set group =>   3
Atom  10C    basis set group =>   4
Atom  11C    basis set group =>   4
Atom  12C    basis set group =>   4
Atom  13C    basis set group =>   4
Atom  14C    basis set group =>   4
Atom  15C    basis set group =>   4
Atom  16C    basis set group =>   4
Atom  17C    basis set group =>   4
Atom  18C    basis set group =>   4
Atom  19C    basis set group =>   4
Atom  20C    basis set group =>   4
Atom  21C    basis set group =>   4
Atom  22C    basis set group =>   4
Atom  23C    basis set group =>   4
Atom  24C    basis set group =>   4
Atom  25C    basis set group =>   4
Atom  26C    basis set group =>   4
Atom  27C    basis set group =>   4
Atom  28H    basis set group =>   5
Atom  29H    basis set group =>   5
Atom  30H    basis set group =>   5
Atom  31H    basis set group =>   5
Atom  32H    basis set group =>   5
Atom  33H    basis set group =>   5
Atom  34H    basis set group =>   5
Atom  35H    basis set group =>   5
Atom  36H    basis set group =>   5
Atom  37H    basis set group =>   5
Atom  38H    basis set group =>   5
Atom  39H    basis set group =>   5
Atom  40O    basis set group =>   2
Atom  41H    basis set group =>   5
Atom  42H    basis set group =>   5
Atom  43Cr   basis set group =>   1
Atom  44O    basis set group =>   2
Atom  45O    basis set group =>   2
Atom  46O    basis set group =>   2
Atom  47O    basis set group =>   2
Atom  48O    basis set group =>   2
Atom  49O    basis set group =>   2
Atom  50N    basis set group =>   3
Atom  51N    basis set group =>   3
Atom  52N    basis set group =>   3
Atom  53C    basis set group =>   4
Atom  54C    basis set group =>   4
Atom  55C    basis set group =>   4
Atom  56C    basis set group =>   4
Atom  57C    basis set group =>   4
Atom  58C    basis set group =>   4
Atom  59C    basis set group =>   4
Atom  60C    basis set group =>   4
Atom  61C    basis set group =>   4
Atom  62C    basis set group =>   4
Atom  63C    basis set group =>   4
Atom  64C    basis set group =>   4
Atom  65C    basis set group =>   4
Atom  66C    basis set group =>   4
Atom  67C    basis set group =>   4
Atom  68C    basis set group =>   4
Atom  69C    basis set group =>   4
Atom  70C    basis set group =>   4
Atom  71H    basis set group =>   5
Atom  72H    basis set group =>   5
Atom  73H    basis set group =>   5
Atom  74H    basis set group =>   5
Atom  75H    basis set group =>   5
Atom  76H    basis set group =>   5
Atom  77H    basis set group =>   5
Atom  78H    basis set group =>   5
Atom  79H    basis set group =>   5
Atom  80H    basis set group =>   5
Atom  81H    basis set group =>   5
Atom  82H    basis set group =>   5
---------------------------------
AUXILIARY/J BASIS SET INFORMATION
---------------------------------
There are 5 groups of distinct atoms

 Group   1 Type Cr  : 19s5p5d3f3g contracted to 8s5p5d2f3g pattern {121111111/11111/11111/21/111}
 Group   2 Type O   : 12s5p4d2f1g contracted to 6s4p3d1f1g pattern {711111/2111/211/2/1}
 Group   3 Type N   : 12s5p4d2f1g contracted to 6s4p3d1f1g pattern {711111/2111/211/2/1}
 Group   4 Type C   : 12s5p4d2f1g contracted to 6s4p3d1f1g pattern {711111/2111/211/2/1}
 Group   5 Type H   : 5s2p1d contracted to 3s1p1d pattern {311/2/1}

Atom   0Cr   basis set group =>   1
Atom   1O    basis set group =>   2
Atom   2O    basis set group =>   2
Atom   3O    basis set group =>   2
Atom   4O    basis set group =>   2
Atom   5O    basis set group =>   2
Atom   6O    basis set group =>   2
Atom   7N    basis set group =>   3
Atom   8N    basis set group =>   3
Atom   9N    basis set group =>   3
Atom  10C    basis set group =>   4
Atom  11C    basis set group =>   4
Atom  12C    basis set group =>   4
Atom  13C    basis set group =>   4
Atom  14C    basis set group =>   4
Atom  15C    basis set group =>   4
Atom  16C    basis set group =>   4
Atom  17C    basis set group =>   4
Atom  18C    basis set group =>   4
Atom  19C    basis set group =>   4
Atom  20C    basis set group =>   4
Atom  21C    basis set group =>   4
Atom  22C    basis set group =>   4
Atom  23C    basis set group =>   4
Atom  24C    basis set group =>   4
Atom  25C    basis set group =>   4
Atom  26C    basis set group =>   4
Atom  27C    basis set group =>   4
Atom  28H    basis set group =>   5
Atom  29H    basis set group =>   5
Atom  30H    basis set group =>   5
Atom  31H    basis set group =>   5
Atom  32H    basis set group =>   5
Atom  33H    basis set group =>   5
Atom  34H    basis set group =>   5
Atom  35H    basis set group =>   5
Atom  36H    basis set group =>   5
Atom  37H    basis set group =>   5
Atom  38H    basis set group =>   5
Atom  39H    basis set group =>   5
Atom  40O    basis set group =>   2
Atom  41H    basis set group =>   5
Atom  42H    basis set group =>   5
Atom  43Cr   basis set group =>   1
Atom  44O    basis set group =>   2
Atom  45O    basis set group =>   2
Atom  46O    basis set group =>   2
Atom  47O    basis set group =>   2
Atom  48O    basis set group =>   2
Atom  49O    basis set group =>   2
Atom  50N    basis set group =>   3
Atom  51N    basis set group =>   3
Atom  52N    basis set group =>   3
Atom  53C    basis set group =>   4
Atom  54C    basis set group =>   4
Atom  55C    basis set group =>   4
Atom  56C    basis set group =>   4
Atom  57C    basis set group =>   4
Atom  58C    basis set group =>   4
Atom  59C    basis set group =>   4
Atom  60C    basis set group =>   4
Atom  61C    basis set group =>   4
Atom  62C    basis set group =>   4
Atom  63C    basis set group =>   4
Atom  64C    basis set group =>   4
Atom  65C    basis set group =>   4
Atom  66C    basis set group =>   4
Atom  67C    basis set group =>   4
Atom  68C    basis set group =>   4
Atom  69C    basis set group =>   4
Atom  70C    basis set group =>   4
Atom  71H    basis set group =>   5
Atom  72H    basis set group =>   5
Atom  73H    basis set group =>   5
Atom  74H    basis set group =>   5
Atom  75H    basis set group =>   5
Atom  76H    basis set group =>   5
Atom  77H    basis set group =>   5
Atom  78H    basis set group =>   5
Atom  79H    basis set group =>   5
Atom  80H    basis set group =>   5
Atom  81H    basis set group =>   5
Atom  82H    basis set group =>   5

Checking for AutoStart:
The File: 2picolinate_water_freq.gbw exists
Trying to determine its content:
     ... Fine, the file contains calculation information
     ... Fine, the calculation information was read
     ... Fine, the file contains a basis set
     ... Fine, the basis set was read
     ... Fine, the file contains a geometry
     ... Fine, the geometry was read
     ... Fine, the file contains a set of orbitals
     ... Fine, the orbitals can be read
     => possible old guess file was deleted
     => GBW file was renamed to GES file
     => GES file is set as startup file
     => Guess is set to MORead
     ... now leaving AutoStart



           ************************************************************
           *        Program running with 8 parallel MPI-processes     *
           *              working on a common directory               *
           ************************************************************
------------------------------------------------------------------------------
                           ORCA GTO INTEGRAL CALCULATION
                           -- RI-GTO INTEGRALS CHOSEN --
------------------------------------------------------------------------------
------------------------------------------------------------------------------
                   ___                                                        
                  /   \      - P O W E R E D   B Y -                         
                 /     \                                                     
                 |  |  |   _    _      __       _____    __    __             
                 |  |  |  | |  | |    /  \     |  _  \  |  |  /  |          
                  \  \/   | |  | |   /    \    | | | |  |  | /  /          
                 / \  \   | |__| |  /  /\  \   | |_| |  |  |/  /          
                |  |  |   |  __  | /  /__\  \  |    /   |      \           
                |  |  |   | |  | | |   __   |  |    \   |  |\   \          
                \     /   | |  | | |  |  |  |  | |\  \  |  | \   \       
                 \___/    |_|  |_| |__|  |__|  |_| \__\ |__|  \__/        
                                                                              
                      - O R C A' S   B I G   F R I E N D -                    
                                      &                                       
                       - I N T E G R A L  F E E D E R -                       
                                                                              
 v1 FN, 2020, v2 2021                                                         
------------------------------------------------------------------------------


Reading SHARK input file 2picolinate_water_freq.SHARKINP.tmp ... ok
----------------------
SHARK INTEGRAL PACKAGE
----------------------

Number of atoms                             ...     83
Number of basis functions                   ...   1238
Number of shells                            ...    576
Maximum angular momentum                    ...      3
Integral batch strategy                     ... SHARK/LIBINT Hybrid
RI-J (if used) integral strategy            ... SPLIT-RIJ (Revised 2003 algorithm where possible)
Printlevel                                  ...      1
Contraction scheme used                     ... SEGMENTED contraction
Coulomb Range Separation                    ... NOT USED
Exchange Range Separation                   ... NOT USED
Finite Nucleus Model                        ... NOT USED
Auxiliary Coulomb fitting basis             ... AVAILABLE
   # of basis functions in Aux-J            ...   3159
   # of shells in Aux-J                     ...   1001
   Maximum angular momentum in Aux-J        ...      4
Auxiliary J/K fitting basis                 ... NOT available
Auxiliary Correlation fitting basis         ... NOT available
Auxiliary 'external' fitting basis          ... NOT available
Integral threshold                          ...     1.000000e-10
Primitive cut-off                           ...     1.000000e-11
Primitive pair pre-selection threshold      ...     1.000000e-11

Calculating pre-screening integrals         ... done (  0.1 sec) Dimension = 576
Organizing shell pair data                  ... done (  0.5 sec)
Shell pair information
Total number of shell pairs                 ...    166176
Shell pairs after pre-screening             ...    102116
Total number of primitive shell pairs       ...    704106
Primitive shell pairs kept                  ...    245733
          la=0 lb=0:  29612 shell pairs
          la=1 lb=0:  40899 shell pairs
          la=1 lb=1:  14222 shell pairs
          la=2 lb=0:   9340 shell pairs
          la=2 lb=1:   6759 shell pairs
          la=2 lb=2:    603 shell pairs
          la=3 lb=0:    363 shell pairs
          la=3 lb=1:    258 shell pairs
          la=3 lb=2:     58 shell pairs
          la=3 lb=3:      2 shell pairs

Calculating one electron integrals          ... done (  0.1 sec)
Calculating RI/J V-Matrix + Cholesky decomp.... done (  0.3 sec)
Calculating Nuclear repulsion               ... done (  0.0 sec) ENN=   9365.186671059970 Eh

SHARK setup successfully completed in   1.3 seconds

Maximum memory used throughout the entire GTOINT-calculation: 153.2 MB


           ************************************************************
           *        Program running with 8 parallel MPI-processes     *
           *              working on a common directory               *
           ************************************************************
-------------------------------------------------------------------------------
                                 ORCA SCF
-------------------------------------------------------------------------------

------------
SCF SETTINGS
------------
Hamiltonian:
 Density Functional     Method          .... DFT(GTOs)
 Exchange Functional    Exchange        .... B88
   X-Alpha parameter    XAlpha          ....  0.666667
   Becke's b parameter  XBeta           ....  0.004200
 Correlation Functional Correlation     .... LYP
 LDA part of GGA corr.  LDAOpt          .... VWN-5
 Gradients option       PostSCFGGA      .... off
 Hybrid DFT is turned on
   Fraction HF Exchange ScalHFX         ....  0.200000
   Scaling of DF-GGA-X  ScalDFX         ....  0.720000
   Scaling of DF-GGA-C  ScalDFC         ....  0.810000
   Scaling of DF-LDA-C  ScalLDAC        ....  1.000000
   Perturbative correction              ....  0.000000
   Density functional embedding theory  .... OFF
   NL short-range parameter             ....  4.800000
 RI-approximation to the Coulomb term is turned on
   Number of AuxJ basis functions       .... 3159
   RIJ-COSX (HFX calculated with COS-X)).... on


General Settings:
 Integral files         IntName         .... 2picolinate_water_freq
 Hartree-Fock type      HFTyp           .... RHF
 Total Charge           Charge          ....    0
 Multiplicity           Mult            ....    1
 Number of Electrons    NEL             ....  436
 Basis Dimension        Dim             .... 1238
 Nuclear Repulsion      ENuc            ....   9365.1866710600 Eh

Convergence Acceleration:
 DIIS                   CNVDIIS         .... on
   Start iteration      DIISMaxIt       ....    12
   Startup error        DIISStart       ....  0.200000
   # of expansion vecs  DIISMaxEq       ....     5
   Bias factor          DIISBfac        ....   1.050
   Max. coefficient     DIISMaxC        ....  10.000
 Trust-Rad. Augm. Hess. CNVTRAH         .... auto
   Auto Start mean grad. ratio tolernc. ....  1.125000
   Auto Start start iteration           ....     1
   Auto Start num. interpolation iter.  ....    10
   Max. Number of Micro iterations      ....    16
   Max. Number of Macro iterations      .... Maxiter - #DIIS iter
   Number of Davidson start vectors     ....     2
   Converg. threshold I  (grad. norm)   ....   5.000e-05
   Converg. threshold II (energy diff.) ....   1.000e-06
   Grad. Scal. Fac. for Micro threshold ....   0.100
   Minimum threshold for Micro iter.    ....   0.010
   NR start threshold (gradient norm)   ....   0.001
   Initial trust radius                 ....   0.400
   Minimum AH scaling param. (alpha)    ....   1.000
   Maximum AH scaling param. (alpha)    .... 1000.000
   Orbital update algorithm             .... Taylor
   White noise on init. David. guess    .... on
   Maximum white noise                  ....   0.010
   Quad. conv. algorithm                .... NR
 SOSCF                  CNVSOSCF        .... off
 Level Shifting         CNVShift        .... on
   Level shift para.    LevelShift      ....    0.2500
   Turn off err/grad.   ShiftErr        ....    0.0010
 Zerner damping         CNVZerner       .... off
 Static damping         CNVDamp         .... on
   Fraction old density DampFac         ....    0.7000
   Max. Damping (<1)    DampMax         ....    0.9800
   Min. Damping (>=0)   DampMin         ....    0.0000
   Turn off err/grad.   DampErr         ....    0.1000
 Fernandez-Rico         CNVRico         .... off

SCF Procedure:
 Maximum # iterations   MaxIter         ....   125
 SCF integral mode      SCFMode         .... Direct
   Integral package                     .... SHARK and LIBINT hybrid scheme
 Reset frequency        DirectResetFreq ....    20
 Integral Threshold     Thresh          ....  1.000e-10 Eh
 Primitive CutOff       TCut            ....  1.000e-11 Eh

Convergence Tolerance:
 Convergence Check Mode ConvCheckMode   .... Total+1el-Energy
 Convergence forced     ConvForced      .... 0
 Energy Change          TolE            ....  1.000e-06 Eh
 1-El. energy change                    ....  1.000e-03 Eh
 DIIS Error             TolErr          ....  1.000e-06


Diagonalization of the overlap matrix:
Smallest eigenvalue                        ... 2.446e-08
Time for diagonalization                   ...    0.092 sec
Threshold for overlap eigenvalues          ... 1.000e-08
Number of eigenvalues below threshold      ... 0
Time for construction of square roots      ...    0.075 sec
Total time needed                          ...    0.172 sec

---------------------
INITIAL GUESS: MOREAD
---------------------
Guess MOs are being read from file: 2picolinate_water_freq.ges
Input Geometry matches current geometry (good)
Input basis set matches current basis set (good)
MOs were renormalized
MOs were reorthogonalized (Cholesky)
                      ------------------
                      INITIAL GUESS DONE (   0.4 sec)
                      ------------------
-------------------
DFT GRID GENERATION
-------------------

General Integration Accuracy     IntAcc      ... 4.388
Radial Grid Type                 RadialGrid  ... OptM3 with GC (2021)
Angular Grid (max. ang.)         AngularGrid ... 4 (Lebedev-302)
Angular grid pruning method      GridPruning ... 4 (adaptive)
Weight generation scheme         WeightScheme... Becke
Basis function cutoff            BFCut       ... 1.0000e-10
Integration weight cutoff        WCut        ... 1.0000e-14
Angular grids for H and He will be reduced by one unit
Partially contracted basis set               ... off
Rotationally invariant grid construction     ... off

Total number of grid points                  ...   449722
Total number of batches                      ...     7067
Average number of points per batch           ...       63
Average number of grid points per atom       ...     5418
Time for grid setup =    2.614 sec

--------------------
COSX GRID GENERATION
--------------------

GRIDX 1
-------
General Integration Accuracy     IntAcc      ... 3.816
Radial Grid Type                 RadialGrid  ... OptM3 with GC (2021)
Angular Grid (max. ang.)         AngularGrid ... 1 (Lebedev-50)
Angular grid pruning method      GridPruning ... 4 (adaptive)
Weight generation scheme         WeightScheme... Becke
Basis function cutoff            BFCut       ... 1.0000e-10
Integration weight cutoff        WCut        ... 1.0000e-14
Angular grids for H and He will be reduced by one unit
Partially contracted basis set               ... on
Rotationally invariant grid construction     ... off

Total number of grid points                  ...    55942
Total number of batches                      ...      912
Average number of points per batch           ...       61
Average number of grid points per atom       ...      674
UseSFitting                                  ... on

GRIDX 2
-------
General Integration Accuracy     IntAcc      ... 4.020
Radial Grid Type                 RadialGrid  ... OptM3 with GC (2021)
Angular Grid (max. ang.)         AngularGrid ... 2 (Lebedev-110)
Angular grid pruning method      GridPruning ... 4 (adaptive)
Weight generation scheme         WeightScheme... Becke
Basis function cutoff            BFCut       ... 1.0000e-10
Integration weight cutoff        WCut        ... 1.0000e-14
Angular grids for H and He will be reduced by one unit
Partially contracted basis set               ... on
Rotationally invariant grid construction     ... off

Total number of grid points                  ...   133962
Total number of batches                      ...     2137
Average number of points per batch           ...       62
Average number of grid points per atom       ...     1614
UseSFitting                                  ... on

GRIDX 3
-------
General Integration Accuracy     IntAcc      ... 4.338
Radial Grid Type                 RadialGrid  ... OptM3 with GC (2021)
Angular Grid (max. ang.)         AngularGrid ... 3 (Lebedev-194)
Angular grid pruning method      GridPruning ... 4 (adaptive)
Weight generation scheme         WeightScheme... Becke
Basis function cutoff            BFCut       ... 1.0000e-10
Integration weight cutoff        WCut        ... 1.0000e-14
Angular grids for H and He will be reduced by one unit
Partially contracted basis set               ... on
Rotationally invariant grid construction     ... off

Total number of grid points                  ...   293143
Total number of batches                      ...     4622
Average number of points per batch           ...       63
Average number of grid points per atom       ...     3532
UseSFitting                                  ... on

Time for X-Grid setup             =    3.936 sec

--------------
SCF ITERATIONS
--------------
ITER       Energy         Delta-E        Max-DP      RMS-DP      [F,P]     Damp
               ***  Starting incremental Fock matrix formation  ***
  0  -4781.4629381503   0.000000000000 0.00516094  0.00001045  0.0000009 0.7000
                 **** Energy Check signals convergence ****

               *****************************************************
               *                     SUCCESS                       *
               *           SCF CONVERGED AFTER   1 CYCLES          *
               *****************************************************

Old exchange energy                            =    -87.297891342 Eh
New exchange energy                            =    -87.298001757 Eh
Exchange energy change after final integration =     -0.000110415 Eh
Total energy after final integration           =  -4781.463049186 Eh
Final COS-X integration done in                =   100.719 sec

----------------
TOTAL SCF ENERGY
----------------

Total Energy       :        -4781.46304919 Eh         -130110.22424 eV

Components:
Nuclear Repulsion  :         9365.18667106 Eh          254839.68512 eV
Electronic Energy  :       -14146.64972025 Eh         -384949.90936 eV
One Electron Energy:       -25214.52935007 Eh         -686122.22540 eV
Two Electron Energy:        11067.87962982 Eh          301172.31603 eV
Max COSX asymmetry :            0.00010077 Eh               0.00274 eV

Virial components:
Potential Energy   :        -9540.57606582 Eh         -259612.27318 eV
Kinetic Energy     :         4759.11301663 Eh          129502.04894 eV
Virial Ratio       :            2.00469626


DFT components:
N(Alpha)           :      218.000072187666 electrons
N(Beta)            :      218.000072187666 electrons
N(Total)           :      436.000144375331 electrons
E(X)               :     -347.856744849428 Eh       
E(C)               :      -18.468185902743 Eh       
E(XC)              :     -366.324930752171 Eh       
DFET-embed. en.    :        0.000000000000 Eh       

---------------
SCF CONVERGENCE
---------------

  Last Energy change         ...   -6.2108e-07  Tolerance :   1.0000e-06
  Last MAX-Density change    ...    1.7412e-02  Tolerance :   1.0000e-05
  Last RMS-Density change    ...    5.2448e-05  Tolerance :   1.0000e-06
  Last DIIS Error            ...    8.1857e-07  Tolerance :   1.0000e-06

             **** THE GBW FILE WAS UPDATED (2picolinate_water_freq.gbw) ****
             **** DENSITY 2picolinate_water_freq.scfp WAS UPDATED ****
             **** ENERGY FILE WAS UPDATED (2picolinate_water_freq.en.tmp) ****
             **** THE GBW FILE WAS UPDATED (2picolinate_water_freq.gbw) ****
             **** DENSITY 2picolinate_water_freq.scfp WAS UPDATED ****
----------------
ORBITAL ENERGIES
----------------

  NO   OCC          E(Eh)            E(eV) 
   0   2.0000    -215.819798     -5872.7553 
   1   2.0000    -215.816741     -5872.6721 
   2   2.0000     -24.818040      -675.3332 
   3   2.0000     -24.814407      -675.2343 
   4   2.0000     -21.126913      -574.8925 
   5   2.0000     -21.122246      -574.7655 
   6   2.0000     -21.108807      -574.3998 
   7   2.0000     -21.108208      -574.3835 
   8   2.0000     -21.098113      -574.1088 
   9   2.0000     -21.092566      -573.9579 
  10   2.0000     -19.207947      -522.6748 
  11   2.0000     -19.159514      -521.3569 
  12   2.0000     -19.159069      -521.3448 
  13   2.0000     -19.159026      -521.3436 
  14   2.0000     -19.157928      -521.3137 
  15   2.0000     -19.142865      -520.9038 
  16   2.0000     -19.139452      -520.8110 
  17   2.0000     -19.128374      -520.5095 
  18   2.0000     -19.127609      -520.4887 
  19   2.0000     -19.126891      -520.4692 
  20   2.0000     -19.126863      -520.4684 
  21   2.0000     -19.116085      -520.1751 
  22   2.0000     -19.078438      -519.1507 
  23   2.0000     -14.405666      -391.9981 
  24   2.0000     -14.404638      -391.9701 
  25   2.0000     -14.399508      -391.8305 
  26   2.0000     -14.395629      -391.7250 
  27   2.0000     -14.393062      -391.6551 
  28   2.0000     -14.381175      -391.3317 
  29   2.0000     -10.312237      -280.6102 
  30   2.0000     -10.311265      -280.5838 
  31   2.0000     -10.310192      -280.5546 
  32   2.0000     -10.309878      -280.5460 
  33   2.0000     -10.309833      -280.5448 
  34   2.0000     -10.297239      -280.2021 
  35   2.0000     -10.287816      -279.9457 
  36   2.0000     -10.266811      -279.3741 
  37   2.0000     -10.265977      -279.3514 
  38   2.0000     -10.265925      -279.3500 
  39   2.0000     -10.265917      -279.3498 
  40   2.0000     -10.265712      -279.3442 
  41   2.0000     -10.264855      -279.3209 
  42   2.0000     -10.257671      -279.1254 
  43   2.0000     -10.256264      -279.0871 
  44   2.0000     -10.254781      -279.0468 
  45   2.0000     -10.253439      -279.0103 
  46   2.0000     -10.252263      -278.9783 
  47   2.0000     -10.248002      -278.8623 
  48   2.0000     -10.244571      -278.7689 
  49   2.0000     -10.244196      -278.7588 
  50   2.0000     -10.242550      -278.7139 
  51   2.0000     -10.238621      -278.6070 
  52   2.0000     -10.238478      -278.6032 
  53   2.0000     -10.235163      -278.5130 
  54   2.0000     -10.234160      -278.4856 
  55   2.0000     -10.233885      -278.4782 
  56   2.0000     -10.233761      -278.4748 
  57   2.0000     -10.231867      -278.4233 
  58   2.0000     -10.230221      -278.3785 
  59   2.0000     -10.228652      -278.3358 
  60   2.0000     -10.225038      -278.2374 
  61   2.0000     -10.224733      -278.2291 
  62   2.0000     -10.220336      -278.1095 
  63   2.0000     -10.216202      -277.9970 
  64   2.0000     -10.209337      -277.8102 
  65   2.0000      -2.941967       -80.0550 
  66   2.0000      -2.939027       -79.9750 
  67   2.0000      -1.909135       -51.9502 
  68   2.0000      -1.904602       -51.8268 
  69   2.0000      -1.881735       -51.2046 
  70   2.0000      -1.878792       -51.1245 
  71   2.0000      -1.861938       -50.6659 
  72   2.0000      -1.855362       -50.4870 
  73   2.0000      -1.107977       -30.1496 
  74   2.0000      -1.072830       -29.1932 
  75   2.0000      -1.071303       -29.1516 
  76   2.0000      -1.069954       -29.1149 
  77   2.0000      -1.068781       -29.0830 
  78   2.0000      -1.055247       -28.7147 
  79   2.0000      -1.009586       -27.4722 
  80   2.0000      -0.999206       -27.1898 
  81   2.0000      -0.998509       -27.1708 
  82   2.0000      -0.989865       -26.9356 
  83   2.0000      -0.989030       -26.9129 
  84   2.0000      -0.982570       -26.7371 
  85   2.0000      -0.981998       -26.7215 
  86   2.0000      -0.981153       -26.6985 
  87   2.0000      -0.980357       -26.6769 
  88   2.0000      -0.979529       -26.6543 
  89   2.0000      -0.977200       -26.5910 
  90   2.0000      -0.965588       -26.2750 
  91   2.0000      -0.933073       -25.3902 
  92   2.0000      -0.846380       -23.0312 
  93   2.0000      -0.846272       -23.0282 
  94   2.0000      -0.843151       -22.9433 
  95   2.0000      -0.836502       -22.7624 
  96   2.0000      -0.832090       -22.6423 
  97   2.0000      -0.828612       -22.5477 
  98   2.0000      -0.812461       -22.1082 
  99   2.0000      -0.812208       -22.1013 
 100   2.0000      -0.807888       -21.9837 
 101   2.0000      -0.803070       -21.8526 
 102   2.0000      -0.800134       -21.7728 
 103   2.0000      -0.796283       -21.6680 
 104   2.0000      -0.718247       -19.5445 
 105   2.0000      -0.688155       -18.7257 
 106   2.0000      -0.687960       -18.7203 
 107   2.0000      -0.679541       -18.4913 
 108   2.0000      -0.678736       -18.4694 
 109   2.0000      -0.676726       -18.4146 
 110   2.0000      -0.674833       -18.3631 
 111   2.0000      -0.673166       -18.3178 
 112   2.0000      -0.672975       -18.3126 
 113   2.0000      -0.663868       -18.0648 
 114   2.0000      -0.660160       -17.9639 
 115   2.0000      -0.657445       -17.8900 
 116   2.0000      -0.625014       -17.0075 
 117   2.0000      -0.596667       -16.2361 
 118   2.0000      -0.596203       -16.2235 
 119   2.0000      -0.589111       -16.0305 
 120   2.0000      -0.587020       -15.9736 
 121   2.0000      -0.580051       -15.7840 
 122   2.0000      -0.567954       -15.4548 
 123   2.0000      -0.546790       -14.8789 
 124   2.0000      -0.544331       -14.8120 
 125   2.0000      -0.535993       -14.5851 
 126   2.0000      -0.535107       -14.5610 
 127   2.0000      -0.533436       -14.5155 
 128   2.0000      -0.532138       -14.4802 
 129   2.0000      -0.528512       -14.3815 
 130   2.0000      -0.527854       -14.3636 
 131   2.0000      -0.525380       -14.2963 
 132   2.0000      -0.521108       -14.1801 
 133   2.0000      -0.518032       -14.0964 
 134   2.0000      -0.508914       -13.8483 
 135   2.0000      -0.505180       -13.7467 
 136   2.0000      -0.504252       -13.7214 
 137   2.0000      -0.501173       -13.6376 
 138   2.0000      -0.495395       -13.4804 
 139   2.0000      -0.493842       -13.4381 
 140   2.0000      -0.490017       -13.3340 
 141   2.0000      -0.485566       -13.2129 
 142   2.0000      -0.483087       -13.1455 
 143   2.0000      -0.482107       -13.1188 
 144   2.0000      -0.478900       -13.0315 
 145   2.0000      -0.475380       -12.9358 
 146   2.0000      -0.473116       -12.8741 
 147   2.0000      -0.470342       -12.7987 
 148   2.0000      -0.469324       -12.7710 
 149   2.0000      -0.466416       -12.6918 
 150   2.0000      -0.463167       -12.6034 
 151   2.0000      -0.461760       -12.5651 
 152   2.0000      -0.455691       -12.4000 
 153   2.0000      -0.454143       -12.3579 
 154   2.0000      -0.452610       -12.3161 
 155   2.0000      -0.451698       -12.2913 
 156   2.0000      -0.448075       -12.1927 
 157   2.0000      -0.446118       -12.1395 
 158   2.0000      -0.443852       -12.0778 
 159   2.0000      -0.438892       -11.9429 
 160   2.0000      -0.435224       -11.8430 
 161   2.0000      -0.433881       -11.8065 
 162   2.0000      -0.432200       -11.7607 
 163   2.0000      -0.430486       -11.7141 
 164   2.0000      -0.424710       -11.5570 
 165   2.0000      -0.418614       -11.3911 
 166   2.0000      -0.418039       -11.3754 
 167   2.0000      -0.415840       -11.3156 
 168   2.0000      -0.414604       -11.2819 
 169   2.0000      -0.412598       -11.2274 
 170   2.0000      -0.411579       -11.1996 
 171   2.0000      -0.410076       -11.1587 
 172   2.0000      -0.407261       -11.0821 
 173   2.0000      -0.406011       -11.0481 
 174   2.0000      -0.404547       -11.0083 
 175   2.0000      -0.401104       -10.9146 
 176   2.0000      -0.384636       -10.4665 
 177   2.0000      -0.378561       -10.3012 
 178   2.0000      -0.366542        -9.9741 
 179   2.0000      -0.363313        -9.8862 
 180   2.0000      -0.359401        -9.7798 
 181   2.0000      -0.357371        -9.7246 
 182   2.0000      -0.342516        -9.3203 
 183   2.0000      -0.341389        -9.2897 
 184   2.0000      -0.335463        -9.1284 
 185   2.0000      -0.334656        -9.1064 
 186   2.0000      -0.334060        -9.0902 
 187   2.0000      -0.330934        -9.0052 
 188   2.0000      -0.330059        -8.9813 
 189   2.0000      -0.323771        -8.8103 
 190   2.0000      -0.322783        -8.7834 
 191   2.0000      -0.319078        -8.6825 
 192   2.0000      -0.316733        -8.6187 
 193   2.0000      -0.315196        -8.5769 
 194   2.0000      -0.311967        -8.4891 
 195   2.0000      -0.307489        -8.3672 
 196   2.0000      -0.307147        -8.3579 
 197   2.0000      -0.305632        -8.3167 
 198   2.0000      -0.299502        -8.1499 
 199   2.0000      -0.299034        -8.1371 
 200   2.0000      -0.297015        -8.0822 
 201   2.0000      -0.295194        -8.0326 
 202   2.0000      -0.293510        -7.9868 
 203   2.0000      -0.291571        -7.9340 
 204   2.0000      -0.289774        -7.8852 
 205   2.0000      -0.285922        -7.7803 
 206   2.0000      -0.280104        -7.6220 
 207   2.0000      -0.278476        -7.5777 
 208   2.0000      -0.273135        -7.4324 
 209   2.0000      -0.271530        -7.3887 
 210   2.0000      -0.269226        -7.3260 
 211   2.0000      -0.267010        -7.2657 
 212   2.0000      -0.265883        -7.2351 
 213   2.0000      -0.259621        -7.0646 
 214   2.0000      -0.240060        -6.5324 
 215   2.0000      -0.219926        -5.9845 
 216   2.0000      -0.216858        -5.9010 
 217   2.0000      -0.177161        -4.8208 
 218   0.0000      -0.165255        -4.4968 
 219   0.0000      -0.118770        -3.2319 
 220   0.0000      -0.115266        -3.1366 
 221   0.0000      -0.086162        -2.3446 
 222   0.0000      -0.085436        -2.3248 
 223   0.0000      -0.077460        -2.1078 
 224   0.0000      -0.074338        -2.0228 
 225   0.0000      -0.071855        -1.9553 
 226   0.0000      -0.067515        -1.8372 
 227   0.0000      -0.067086        -1.8255 
 228   0.0000      -0.060899        -1.6571 
 229   0.0000      -0.055513        -1.5106 
 230   0.0000      -0.054432        -1.4812 
 231   0.0000      -0.052226        -1.4211 
 232   0.0000      -0.046133        -1.2553 
 233   0.0000      -0.043405        -1.1811 
 234   0.0000      -0.038914        -1.0589 
 235   0.0000      -0.023766        -0.6467 
 236   0.0000      -0.020357        -0.5539 
 237   0.0000      -0.018796        -0.5115 
 238   0.0000      -0.016886        -0.4595 
 239   0.0000      -0.011797        -0.3210 
 240   0.0000      -0.008080        -0.2199 
 241   0.0000      -0.002514        -0.0684 
 242   0.0000       0.000431         0.0117 
 243   0.0000       0.005944         0.1617 
 244   0.0000       0.006233         0.1696 
 245   0.0000       0.007936         0.2159 
 246   0.0000       0.015955         0.4342 
 247   0.0000       0.017413         0.4738 
 248   0.0000       0.020356         0.5539 
 249   0.0000       0.021867         0.5950 
 250   0.0000       0.024394         0.6638 
 251   0.0000       0.027627         0.7518 
 252   0.0000       0.030583         0.8322 
 253   0.0000       0.031014         0.8439 
 254   0.0000       0.031625         0.8606 
 255   0.0000       0.034173         0.9299 
 256   0.0000       0.035908         0.9771 
 257   0.0000       0.037876         1.0307 
 258   0.0000       0.039586         1.0772 
 259   0.0000       0.039952         1.0872 
 260   0.0000       0.040727         1.1082 
 261   0.0000       0.042325         1.1517 
 262   0.0000       0.043146         1.1741 
 263   0.0000       0.047205         1.2845 
 264   0.0000       0.050200         1.3660 
 265   0.0000       0.051246         1.3945 
 266   0.0000       0.051615         1.4045 
 267   0.0000       0.054519         1.4835 
 268   0.0000       0.056946         1.5496 
 269   0.0000       0.057939         1.5766 
 270   0.0000       0.059654         1.6233 
 271   0.0000       0.061842         1.6828 
 272   0.0000       0.064397         1.7523 
 273   0.0000       0.066223         1.8020 
 274   0.0000       0.068631         1.8675 
 275   0.0000       0.069829         1.9001 
 276   0.0000       0.072955         1.9852 
 277   0.0000       0.074207         2.0193 
 278   0.0000       0.078570         2.1380 
 279   0.0000       0.079118         2.1529 
 280   0.0000       0.081980         2.2308 
 281   0.0000       0.084062         2.2874 
 282   0.0000       0.086073         2.3422 
 283   0.0000       0.087380         2.3777 
 284   0.0000       0.088637         2.4119 
 285   0.0000       0.091701         2.4953 
 286   0.0000       0.092696         2.5224 
 287   0.0000       0.094806         2.5798 
 288   0.0000       0.096133         2.6159 
 289   0.0000       0.097839         2.6623 
 290   0.0000       0.099046         2.6952 
 291   0.0000       0.099675         2.7123 
 292   0.0000       0.100299         2.7293 
 293   0.0000       0.101766         2.7692 
 294   0.0000       0.104618         2.8468 
 295   0.0000       0.105464         2.8698 
 296   0.0000       0.106564         2.8998 
 297   0.0000       0.107803         2.9335 
 298   0.0000       0.108305         2.9471 
 299   0.0000       0.110111         2.9963 
 300   0.0000       0.111893         3.0448 
 301   0.0000       0.112487         3.0609 
 302   0.0000       0.112985         3.0745 
 303   0.0000       0.114406         3.1131 
 304   0.0000       0.115471         3.1421 
 305   0.0000       0.116328         3.1654 
 306   0.0000       0.117310         3.1922 
 307   0.0000       0.117754         3.2043 
 308   0.0000       0.119287         3.2460 
 309   0.0000       0.120467         3.2781 
 310   0.0000       0.121383         3.3030 
 311   0.0000       0.122861         3.3432 
 312   0.0000       0.123228         3.3532 
 313   0.0000       0.126444         3.4407 
 314   0.0000       0.126857         3.4519 
 315   0.0000       0.127896         3.4802 
 316   0.0000       0.128685         3.5017 
 317   0.0000       0.129875         3.5341 
 318   0.0000       0.131774         3.5857 
 319   0.0000       0.133421         3.6306 
 320   0.0000       0.133800         3.6409 
 321   0.0000       0.135258         3.6806 
 322   0.0000       0.136125         3.7041 
 323   0.0000       0.137238         3.7344 
 324   0.0000       0.137520         3.7421 
 325   0.0000       0.139583         3.7983 
 326   0.0000       0.140081         3.8118 
 327   0.0000       0.140718         3.8291 
 328   0.0000       0.141584         3.8527 
 329   0.0000       0.141759         3.8575 
 330   0.0000       0.143616         3.9080 
 331   0.0000       0.144639         3.9358 
 332   0.0000       0.146803         3.9947 
 333   0.0000       0.147403         4.0110 
 334   0.0000       0.150554         4.0968 
 335   0.0000       0.150693         4.1006 
 336   0.0000       0.152768         4.1570 
 337   0.0000       0.154287         4.1984 
 338   0.0000       0.155628         4.2348 
 339   0.0000       0.157020         4.2727 
 340   0.0000       0.158132         4.3030 
 341   0.0000       0.160753         4.3743 
 342   0.0000       0.161062         4.3827 
 343   0.0000       0.161125         4.3844 
 344   0.0000       0.165350         4.4994 
 345   0.0000       0.166277         4.5246 
 346   0.0000       0.167871         4.5680 
 347   0.0000       0.169667         4.6169 
 348   0.0000       0.171676         4.6716 
 349   0.0000       0.172589         4.6964 
 350   0.0000       0.173944         4.7332 
 351   0.0000       0.174493         4.7482 
 352   0.0000       0.176920         4.8142 
 353   0.0000       0.178962         4.8698 
 354   0.0000       0.179407         4.8819 
 355   0.0000       0.182997         4.9796 
 356   0.0000       0.184566         5.0223 
 357   0.0000       0.185638         5.0515 
 358   0.0000       0.187125         5.0919 
 359   0.0000       0.187806         5.1105 
 360   0.0000       0.188790         5.1372 
 361   0.0000       0.190071         5.1721 
 362   0.0000       0.192525         5.2389 
 363   0.0000       0.193134         5.2555 
 364   0.0000       0.195330         5.3152 
 365   0.0000       0.195686         5.3249 
 366   0.0000       0.197111         5.3637 
 367   0.0000       0.199562         5.4304 
 368   0.0000       0.200226         5.4484 
 369   0.0000       0.202090         5.4991 
 370   0.0000       0.202492         5.5101 
 371   0.0000       0.204429         5.5628 
 372   0.0000       0.206310         5.6140 
 373   0.0000       0.208095         5.6626 
 374   0.0000       0.209593         5.7033 
 375   0.0000       0.211231         5.7479 
 376   0.0000       0.211685         5.7602 
 377   0.0000       0.213313         5.8045 
 378   0.0000       0.214879         5.8472 
 379   0.0000       0.215643         5.8679 
 380   0.0000       0.217077         5.9070 
 381   0.0000       0.217434         5.9167 
 382   0.0000       0.219132         5.9629 
 383   0.0000       0.220460         5.9990 
 384   0.0000       0.223735         6.0881 
 385   0.0000       0.225829         6.1451 
 386   0.0000       0.226231         6.1561 
 387   0.0000       0.227691         6.1958 
 388   0.0000       0.229898         6.2558 
 389   0.0000       0.230870         6.2823 
 390   0.0000       0.231333         6.2949 
 391   0.0000       0.234199         6.3729 
 392   0.0000       0.234673         6.3858 
 393   0.0000       0.236661         6.4399 
 394   0.0000       0.237198         6.4545 
 395   0.0000       0.237464         6.4617 
 396   0.0000       0.238750         6.4967 
 397   0.0000       0.241370         6.5680 
 398   0.0000       0.243628         6.6295 
 399   0.0000       0.243822         6.6347 
 400   0.0000       0.245425         6.6784 
 401   0.0000       0.248113         6.7515 
 402   0.0000       0.248930         6.7737 
 403   0.0000       0.249780         6.7969 
 404   0.0000       0.250946         6.8286 
 405   0.0000       0.252680         6.8758 
 406   0.0000       0.254029         6.9125 
 407   0.0000       0.255647         6.9565 
 408   0.0000       0.256918         6.9911 
 409   0.0000       0.258520         7.0347 
 410   0.0000       0.259613         7.0644 
 411   0.0000       0.260763         7.0957 
 412   0.0000       0.262556         7.1445 
 413   0.0000       0.263460         7.1691 
 414   0.0000       0.266068         7.2401 
 415   0.0000       0.266538         7.2529 
 416   0.0000       0.268442         7.3047 
 417   0.0000       0.268685         7.3113 
 418   0.0000       0.270837         7.3699 
 419   0.0000       0.271416         7.3856 
 420   0.0000       0.272731         7.4214 
 421   0.0000       0.274697         7.4749 
 422   0.0000       0.276107         7.5133 
 423   0.0000       0.277680         7.5561 
 424   0.0000       0.278929         7.5900 
 425   0.0000       0.279153         7.5961 
 426   0.0000       0.281554         7.6615 
 427   0.0000       0.281671         7.6647 
 428   0.0000       0.282422         7.6851 
 429   0.0000       0.283781         7.7221 
 430   0.0000       0.285056         7.7568 
 431   0.0000       0.286610         7.7991 
 432   0.0000       0.287864         7.8332 
 433   0.0000       0.288958         7.8629 
 434   0.0000       0.290033         7.8922 
 435   0.0000       0.291011         7.9188 
 436   0.0000       0.291712         7.9379 
 437   0.0000       0.294652         8.0179 
 438   0.0000       0.297029         8.0826 
 439   0.0000       0.297628         8.0989 
 440   0.0000       0.299048         8.1375 
 441   0.0000       0.299782         8.1575 
 442   0.0000       0.301987         8.2175 
 443   0.0000       0.303787         8.2665 
 444   0.0000       0.305547         8.3144 
 445   0.0000       0.306811         8.3487 
 446   0.0000       0.308740         8.4012 
 447   0.0000       0.312516         8.5040 
 448   0.0000       0.313947         8.5429 
 449   0.0000       0.314416         8.5557 
 450   0.0000       0.317206         8.6316 
 451   0.0000       0.317877         8.6499 
 452   0.0000       0.321220         8.7408 
 453   0.0000       0.321942         8.7605 
[...]
204:   1514.14   0.002586   13.07  0.000533  (-0.004696  0.021366 -0.007377)
205:   1595.93   0.003463   17.50  0.000677  ( 0.013448  0.022265  0.000801)
206:   1610.96   0.002141   10.82  0.000415  ( 0.018589 -0.003143  0.007696)
207:   1611.57   0.001855    9.38  0.000359  (-0.017879 -0.003120 -0.005463)
208:   1612.22   0.001343    6.79  0.000260  ( 0.006062  0.000907  0.014914)
209:   1612.87   0.002111   10.67  0.000409  ( 0.013803 -0.001375  0.014701)
210:   1613.88   0.001658    8.38  0.000321  (-0.002438  0.004366 -0.017190)
211:   1638.08   0.012739   64.38  0.002427  (-0.043469  0.009919 -0.020947)
212:   1643.28   0.025352  128.12  0.004814  ( 0.062157  0.030737  0.002485)
213:   1644.94   0.015152   76.57  0.002875  ( 0.003425  0.004289 -0.053333)
214:   1647.44   0.004430   22.39  0.000839  (-0.025352  0.006694  0.012316)
215:   1647.97   0.018490   93.44  0.003501  ( 0.012594 -0.028514 -0.050295)
216:   1648.61   0.010809   54.62  0.002046  ( 0.039580 -0.012329  0.018097)
217:   1653.11   0.001934    9.78  0.000365  ( 0.005773  0.013380 -0.012361)
218:   1667.34   0.102009  515.51  0.019092  ( 0.130278  0.000494  0.046039)
219:   1684.40   0.140584  710.45  0.026046  ( 0.138952  0.081821 -0.006560)
220:   1687.77   0.466855  2359.29  0.086320  ( 0.113132 -0.043823  0.267583)
221:   1694.06   0.213871  1080.82  0.039397  ( 0.070282 -0.092647 -0.160855)
222:   1700.92   0.072496  366.37  0.013301  ( 0.097716 -0.034460  0.050645)
223:   2975.06   0.003521   17.79  0.000369  (-0.016803  0.008052  0.004704)
224:   3203.56   0.000527    2.66  0.000051  (-0.000741  0.006942  0.001605)
225:   3204.62   0.001364    6.89  0.000133  ( 0.008282 -0.007744  0.002056)
226:   3205.09   0.000888    4.49  0.000086  ( 0.003304  0.000443  0.008682)
227:   3205.75   0.000923    4.67  0.000090  ( 0.005111  0.005815  0.005471)
228:   3207.20   0.000470    2.37  0.000046  (-0.002214 -0.006153  0.001718)
229:   3217.16   0.000319    1.61  0.000031  (-0.001443 -0.004465 -0.002993)
230:   3218.55   0.000641    3.24  0.000062  (-0.006261 -0.004181 -0.002337)
231:   3218.61   0.000059    0.30  0.000006  (-0.002327 -0.000095 -0.000570)
232:   3219.89   0.000268    1.36  0.000026  ( 0.002633 -0.003747  0.002245)
233:   3219.91   0.000113    0.57  0.000011  (-0.000859  0.001460 -0.002838)
234:   3220.53   0.000128    0.65  0.000012  ( 0.002990  0.001742 -0.000689)
235:   3228.20   0.000536    2.71  0.000052  (-0.004157  0.000488 -0.005859)
236:   3230.30   0.002396   12.11  0.000232  ( 0.012472  0.001523  0.008581)
237:   3231.63   0.001540    7.78  0.000149  (-0.003417 -0.008135 -0.008419)
238:   3231.94   0.004151   20.98  0.000401  ( 0.012240 -0.008519  0.013356)
239:   3232.00   0.003110   15.72  0.000300  (-0.012727  0.007644 -0.008936)
240:   3232.19   0.001198    6.05  0.000116  ( 0.009415  0.004458  0.002671)
241:   3233.20   0.001603    8.10  0.000155  (-0.008490 -0.008348 -0.003601)
242:   3237.10   0.001019    5.15  0.000098  ( 0.004105 -0.003335  0.008380)
243:   3237.65   0.000700    3.54  0.000067  ( 0.007933  0.001150  0.001796)
244:   3237.85   0.000563    2.84  0.000054  ( 0.007035  0.001627 -0.001448)
245:   3239.43   0.000533    2.69  0.000051  ( 0.001826 -0.001244 -0.006817)
246:   3269.71   0.000847    4.28  0.000081  (-0.002026 -0.008744  0.000480)
247:   3646.08   0.044287  223.81  0.003790  ( 0.037150  0.014480 -0.046911)
248:   3736.21   0.002813   14.22  0.000235  (-0.010013 -0.011385  0.002258)

* The epsilon (eps) is given for a Dirac delta lineshape.
** The dipole moment derivative (T) already includes vibrational overlap.

The first frequency considered to be a vibration is 7
The total number of vibrations considered is 242


--------------------------
THERMOCHEMISTRY AT 298.15K
--------------------------

Temperature         ... 298.15 K
Pressure            ... 1.00 atm
Total Mass          ... 854.63 AMU

Throughout the following assumptions are being made:
  (1) The electronic state is orbitally nondegenerate
  (2) There are no thermally accessible electronically excited states
  (3) Hindered rotations indicated by low frequency modes are not
      treated as such but are treated as vibrations and this may
      cause some error
  (4) All equations used are the standard statistical mechanics
      equations for an ideal gas
  (5) All vibrations are strictly harmonic

freq.       7.63  E(vib)   ...       0.58 
freq.      12.44  E(vib)   ...       0.57 
freq.      18.33  E(vib)   ...       0.57 
freq.      19.80  E(vib)   ...       0.56 
freq.      23.71  E(vib)   ...       0.56 
freq.      29.01  E(vib)   ...       0.55 
freq.      29.20  E(vib)   ...       0.55 
freq.      39.08  E(vib)   ...       0.54 
freq.      44.88  E(vib)   ...       0.53 
freq.      46.34  E(vib)   ...       0.53 
freq.      48.18  E(vib)   ...       0.53 
freq.      50.78  E(vib)   ...       0.52 
freq.      53.53  E(vib)   ...       0.52 
freq.      59.22  E(vib)   ...       0.51 
freq.      60.24  E(vib)   ...       0.51 
freq.      88.34  E(vib)   ...       0.48 
freq.      96.88  E(vib)   ...       0.46 
freq.     103.74  E(vib)   ...       0.46 
freq.     107.39  E(vib)   ...       0.45 
freq.     108.71  E(vib)   ...       0.45 
freq.     114.23  E(vib)   ...       0.44 
freq.     121.14  E(vib)   ...       0.44 
freq.     128.46  E(vib)   ...       0.43 
freq.     137.34  E(vib)   ...       0.42 
freq.     143.34  E(vib)   ...       0.41 
freq.     145.90  E(vib)   ...       0.41 
freq.     148.21  E(vib)   ...       0.41 
freq.     158.71  E(vib)   ...       0.39 
freq.     161.01  E(vib)   ...       0.39 
freq.     166.27  E(vib)   ...       0.39 
freq.     170.25  E(vib)   ...       0.38 
freq.     179.42  E(vib)   ...       0.37 
freq.     185.20  E(vib)   ...       0.37 
freq.     191.28  E(vib)   ...       0.36 
freq.     193.07  E(vib)   ...       0.36 
freq.     198.58  E(vib)   ...       0.35 
freq.     205.99  E(vib)   ...       0.35 
freq.     210.39  E(vib)   ...       0.34 
freq.     214.48  E(vib)   ...       0.34 
freq.     221.37  E(vib)   ...       0.33 
freq.     231.32  E(vib)   ...       0.32 
freq.     236.59  E(vib)   ...       0.32 
freq.     257.17  E(vib)   ...       0.30 
freq.     267.13  E(vib)   ...       0.29 
freq.     268.70  E(vib)   ...       0.29 
freq.     273.69  E(vib)   ...       0.28 
freq.     278.49  E(vib)   ...       0.28 
freq.     285.22  E(vib)   ...       0.28 
freq.     309.33  E(vib)   ...       0.26 
freq.     318.74  E(vib)   ...       0.25 
freq.     327.01  E(vib)   ...       0.24 
freq.     337.10  E(vib)   ...       0.24 
freq.     340.46  E(vib)   ...       0.23 
freq.     364.51  E(vib)   ...       0.22 
freq.     374.78  E(vib)   ...       0.21 
freq.     412.89  E(vib)   ...       0.19 
freq.     414.46  E(vib)   ...       0.19 
freq.     420.31  E(vib)   ...       0.18 
freq.     422.03  E(vib)   ...       0.18 
freq.     425.38  E(vib)   ...       0.18 
freq.     428.66  E(vib)   ...       0.18 
freq.     430.12  E(vib)   ...       0.18 
freq.     435.12  E(vib)   ...       0.17 
freq.     435.40  E(vib)   ...       0.17 
freq.     438.01  E(vib)   ...       0.17 
freq.     441.30  E(vib)   ...       0.17 
freq.     464.58  E(vib)   ...       0.16 
freq.     464.94  E(vib)   ...       0.16 
freq.     471.90  E(vib)   ...       0.15 
freq.     473.28  E(vib)   ...       0.15 
freq.     480.10  E(vib)   ...       0.15 
freq.     487.67  E(vib)   ...       0.15 
freq.     493.46  E(vib)   ...       0.14 
freq.     508.75  E(vib)   ...       0.14 
freq.     529.34  E(vib)   ...       0.13 
freq.     535.92  E(vib)   ...       0.12 
freq.     536.65  E(vib)   ...       0.12 
freq.     538.32  E(vib)   ...       0.12 
freq.     543.80  E(vib)   ...       0.12 
freq.     554.70  E(vib)   ...       0.12 
freq.     574.06  E(vib)   ...       0.11 
freq.     596.11  E(vib)   ...       0.10 
freq.     611.76  E(vib)   ...       0.10 
freq.     647.64  E(vib)   ...       0.09 
freq.     650.07  E(vib)   ...       0.08 
freq.     651.88  E(vib)   ...       0.08 
freq.     652.02  E(vib)   ...       0.08 
freq.     652.96  E(vib)   ...       0.08 
freq.     665.16  E(vib)   ...       0.08 
freq.     692.42  E(vib)   ...       0.07 
freq.     697.70  E(vib)   ...       0.07 
freq.     699.53  E(vib)   ...       0.07 
freq.     703.05  E(vib)   ...       0.07 
freq.     703.70  E(vib)   ...       0.07 
freq.     704.91  E(vib)   ...       0.07 
freq.     705.36  E(vib)   ...       0.07 
freq.     709.95  E(vib)   ...       0.07 
freq.     711.59  E(vib)   ...       0.07 
freq.     718.24  E(vib)   ...       0.07 
freq.     726.02  E(vib)   ...       0.06 
freq.     760.60  E(vib)   ...       0.06 
freq.     769.07  E(vib)   ...       0.06 
freq.     770.13  E(vib)   ...       0.05 
freq.     771.48  E(vib)   ...       0.05 
freq.     771.93  E(vib)   ...       0.05 
freq.     772.82  E(vib)   ...       0.05 
freq.     803.24  E(vib)   ...       0.05 
freq.     824.51  E(vib)   ...       0.04 
freq.     825.05  E(vib)   ...       0.04 
freq.     826.56  E(vib)   ...       0.04 
freq.     827.61  E(vib)   ...       0.04 
freq.     830.19  E(vib)   ...       0.04 
freq.     839.38  E(vib)   ...       0.04 
freq.     839.54  E(vib)   ...       0.04 
freq.     840.58  E(vib)   ...       0.04 
freq.     842.76  E(vib)   ...       0.04 
freq.     843.28  E(vib)   ...       0.04 
freq.     885.96  E(vib)   ...       0.04 
freq.     893.33  E(vib)   ...       0.03 
freq.     918.49  E(vib)   ...       0.03 
freq.     925.44  E(vib)   ...       0.03 
freq.     925.84  E(vib)   ...       0.03 
freq.     928.21  E(vib)   ...       0.03 
freq.     928.29  E(vib)   ...       0.03 
freq.     949.45  E(vib)   ...       0.03 
freq.     970.40  E(vib)   ...       0.03 
freq.     976.79  E(vib)   ...       0.03 
freq.     987.00  E(vib)   ...       0.02 
freq.     993.00  E(vib)   ...       0.02 
freq.     993.21  E(vib)   ...       0.02 
freq.     997.08  E(vib)   ...       0.02 
freq.     998.71  E(vib)   ...       0.02 
freq.    1010.36  E(vib)   ...       0.02 
freq.    1019.82  E(vib)   ...       0.02 
freq.    1020.68  E(vib)   ...       0.02 
freq.    1023.21  E(vib)   ...       0.02 
freq.    1023.25  E(vib)   ...       0.02 
freq.    1029.28  E(vib)   ...       0.02 
freq.    1030.16  E(vib)   ...       0.02 
freq.    1033.94  E(vib)   ...       0.02 
freq.    1035.79  E(vib)   ...       0.02 
freq.    1036.96  E(vib)   ...       0.02 
freq.    1037.60  E(vib)   ...       0.02 
freq.    1062.74  E(vib)   ...       0.02 
freq.    1064.10  E(vib)   ...       0.02 
freq.    1065.51  E(vib)   ...       0.02 
freq.    1067.52  E(vib)   ...       0.02 
freq.    1070.81  E(vib)   ...       0.02 
freq.    1106.40  E(vib)   ...       0.02 
freq.    1112.57  E(vib)   ...       0.01 
freq.    1113.29  E(vib)   ...       0.01 
freq.    1114.15  E(vib)   ...       0.01 
freq.    1117.08  E(vib)   ...       0.01 
freq.    1121.03  E(vib)   ...       0.01 
freq.    1126.75  E(vib)   ...       0.01 
freq.    1169.98  E(vib)   ...       0.01 
freq.    1175.77  E(vib)   ...       0.01 
freq.    1176.21  E(vib)   ...       0.01 
freq.    1176.51  E(vib)   ...       0.01 
freq.    1178.21  E(vib)   ...       0.01 
freq.    1178.40  E(vib)   ...       0.01 
freq.    1178.51  E(vib)   ...       0.01 
freq.    1180.18  E(vib)   ...       0.01 
freq.    1181.28  E(vib)   ...       0.01 
freq.    1185.74  E(vib)   ...       0.01 
freq.    1247.14  E(vib)   ...       0.01 
freq.    1280.20  E(vib)   ...       0.01 
freq.    1296.28  E(vib)   ...       0.01 
freq.    1297.11  E(vib)   ...       0.01 
freq.    1298.36  E(vib)   ...       0.01 
freq.    1301.86  E(vib)   ...       0.01 
freq.    1303.40  E(vib)   ...       0.01 
freq.    1308.00  E(vib)   ...       0.01 
freq.    1308.39  E(vib)   ...       0.01 
freq.    1312.87  E(vib)   ...       0.01 
freq.    1316.92  E(vib)   ...       0.01 
freq.    1318.90  E(vib)   ...       0.01 
freq.    1321.17  E(vib)   ...       0.01 
freq.    1326.49  E(vib)   ...       0.01 
freq.    1332.05  E(vib)   ...       0.01 
freq.    1345.58  E(vib)   ...       0.01 
freq.    1347.46  E(vib)   ...       0.01 
freq.    1349.68  E(vib)   ...       0.01 
freq.    1365.91  E(vib)   ...       0.01 
freq.    1369.04  E(vib)   ...       0.01 
freq.    1378.07  E(vib)   ...       0.01 
freq.    1473.31  E(vib)   ...       0.00 
freq.    1474.45  E(vib)   ...       0.00 
freq.    1474.68  E(vib)   ...       0.00 
freq.    1476.12  E(vib)   ...       0.00 
freq.    1476.23  E(vib)   ...       0.00 
freq.    1486.43  E(vib)   ...       0.00 
freq.    1498.55  E(vib)   ...       0.00 
freq.    1499.13  E(vib)   ...       0.00 
freq.    1501.03  E(vib)   ...       0.00 
freq.    1503.03  E(vib)   ...       0.00 
freq.    1506.68  E(vib)   ...       0.00 
freq.    1514.14  E(vib)   ...       0.00 
freq.    1595.93  E(vib)   ...       0.00 
freq.    1610.96  E(vib)   ...       0.00 
freq.    1611.57  E(vib)   ...       0.00 
freq.    1612.22  E(vib)   ...       0.00 
freq.    1612.87  E(vib)   ...       0.00 
freq.    1613.88  E(vib)   ...       0.00 
freq.    1638.08  E(vib)   ...       0.00 
freq.    1643.28  E(vib)   ...       0.00 
freq.    1644.94  E(vib)   ...       0.00 
freq.    1647.44  E(vib)   ...       0.00 
freq.    1647.97  E(vib)   ...       0.00 
freq.    1648.61  E(vib)   ...       0.00 
freq.    1653.11  E(vib)   ...       0.00 
freq.    1667.34  E(vib)   ...       0.00 
freq.    1684.40  E(vib)   ...       0.00 
freq.    1687.77  E(vib)   ...       0.00 
freq.    1694.06  E(vib)   ...       0.00 
freq.    1700.92  E(vib)   ...       0.00 
freq.    2975.06  E(vib)   ...       0.00 
freq.    3203.56  E(vib)   ...       0.00 
freq.    3204.62  E(vib)   ...       0.00 
freq.    3205.09  E(vib)   ...       0.00 
freq.    3205.75  E(vib)   ...       0.00 
freq.    3207.20  E(vib)   ...       0.00 
freq.    3217.16  E(vib)   ...       0.00 
freq.    3218.55  E(vib)   ...       0.00 
freq.    3218.61  E(vib)   ...       0.00 
freq.    3219.89  E(vib)   ...       0.00 
freq.    3219.91  E(vib)   ...       0.00 
freq.    3220.53  E(vib)   ...       0.00 
freq.    3228.20  E(vib)   ...       0.00 
freq.    3230.30  E(vib)   ...       0.00 
freq.    3231.63  E(vib)   ...       0.00 
freq.    3231.94  E(vib)   ...       0.00 
freq.    3232.00  E(vib)   ...       0.00 
freq.    3232.19  E(vib)   ...       0.00 
freq.    3233.20  E(vib)   ...       0.00 
freq.    3237.10  E(vib)   ...       0.00 
freq.    3237.65  E(vib)   ...       0.00 
freq.    3237.85  E(vib)   ...       0.00 
freq.    3239.43  E(vib)   ...       0.00 
freq.    3269.71  E(vib)   ...       0.00 
freq.    3646.08  E(vib)   ...       0.00 
freq.    3736.21  E(vib)   ...       0.00 

------------
INNER ENERGY
------------

The inner energy is: U= E(el) + E(ZPE) + E(vib) + E(rot) + E(trans)
    E(el)   - is the total energy from the electronic structure calculation
              = E(kin-el) + E(nuc-el) + E(el-el) + E(nuc-nuc)
    E(ZPE)  - the the zero temperature vibrational energy from the frequency calculation
    E(vib)  - the the finite temperature correction to E(ZPE) due to population
              of excited vibrational states
    E(rot)  - is the rotational thermal energy
    E(trans)- is the translational thermal energy

Summary of contributions to the inner energy U:
Electronic energy                ...  -4781.46304919 Eh
Zero point energy                ...      0.58820168 Eh     369.10 kcal/mol
Thermal vibrational correction   ...      0.04710597 Eh      29.56 kcal/mol
Thermal rotational correction    ...      0.00141627 Eh       0.89 kcal/mol
Thermal translational correction ...      0.00141627 Eh       0.89 kcal/mol
-----------------------------------------------------------------------
Total thermal energy                  -4780.82490899 Eh


Summary of corrections to the electronic energy:
(perhaps to be used in another calculation)
Total thermal correction                  0.04993852 Eh      31.34 kcal/mol
Non-thermal (ZPE) correction              0.58820168 Eh     369.10 kcal/mol
-----------------------------------------------------------------------
Total correction                          0.63814020 Eh     400.44 kcal/mol


--------
ENTHALPY
--------

The enthalpy is H = U + kB*T
                kB is Boltzmann's constant
Total free energy                 ...  -4780.82490899 Eh 
Thermal Enthalpy correction       ...      0.00094421 Eh       0.59 kcal/mol
-----------------------------------------------------------------------
Total Enthalpy                    ...  -4780.82396478 Eh


Note: Only C1 symmetry has been detected, increase convergence thresholds 
      if your molecule has a higher symmetry. Symmetry factor of 1.0 is   
      used for the rotational entropy correction. 
 

Note: Rotational entropy computed according to Herzberg 
Infrared and Raman Spectra, Chapter V,1, Van Nostrand Reinhold, 1945 
Point Group:  C1, Symmetry Number:   1  
Rotational constants in cm-1:     0.002866     0.000723     0.000669 

Vibrational entropy computed according to the QRRHO of S. Grimme
Chem.Eur.J. 2012 18 9955


-------
ENTROPY
-------

The entropy contributions are T*S = T*(S(el)+S(vib)+S(rot)+S(trans))
     S(el)   - electronic entropy
     S(vib)  - vibrational entropy
     S(rot)  - rotational entropy
     S(trans)- translational entropy
The entropies will be listed as multiplied by the temperature to get
units of energy

Electronic entropy                ...      0.00000000 Eh      0.00 kcal/mol
Vibrational entropy               ...      0.08592854 Eh     53.92 kcal/mol
Rotational entropy                ...      0.01913965 Eh     12.01 kcal/mol
Translational entropy             ...      0.02190986 Eh     13.75 kcal/mol
-----------------------------------------------------------------------
Final entropy term                ...      0.12697805 Eh     79.68 kcal/mol

In case the symmetry of your molecule has not been determined correctly
or in case you have a reason to use a different symmetry number we print 
out the resulting rotational entropy values for sn=1,12 :
 --------------------------------------------------------
|  sn= 1 | S(rot)=       0.01913965 Eh     12.01 kcal/mol|
|  sn= 2 | S(rot)=       0.01848520 Eh     11.60 kcal/mol|
|  sn= 3 | S(rot)=       0.01810236 Eh     11.36 kcal/mol|
|  sn= 4 | S(rot)=       0.01783074 Eh     11.19 kcal/mol|
|  sn= 5 | S(rot)=       0.01762005 Eh     11.06 kcal/mol|
|  sn= 6 | S(rot)=       0.01744791 Eh     10.95 kcal/mol|
|  sn= 7 | S(rot)=       0.01730236 Eh     10.86 kcal/mol|
|  sn= 8 | S(rot)=       0.01717628 Eh     10.78 kcal/mol|
|  sn= 9 | S(rot)=       0.01706507 Eh     10.71 kcal/mol|
|  sn=10 | S(rot)=       0.01696560 Eh     10.65 kcal/mol|
|  sn=11 | S(rot)=       0.01687561 Eh     10.59 kcal/mol|
|  sn=12 | S(rot)=       0.01679345 Eh     10.54 kcal/mol|
 --------------------------------------------------------


-------------------
GIBBS FREE ENERGY
-------------------

The Gibbs free energy is G = H - T*S

Total enthalpy                    ...  -4780.82396478 Eh 
Total entropy correction          ...     -0.12697805 Eh    -79.68 kcal/mol
-----------------------------------------------------------------------
Final Gibbs free energy         ...  -4780.95094283 Eh

For completeness - the Gibbs free energy minus the electronic energy
G-E(el)                           ...      0.51210636 Eh    321.35 kcal/mol


Timings for individual modules:

Sum of individual times         ...    23793.173 sec (= 396.553 min)
GTO integral calculation        ...        1.803 sec (=   0.030 min)   0.0 %
SCF iterations                  ...      179.050 sec (=   2.984 min)   0.8 %
Analytical frequency calculation...    23612.320 sec (= 393.539 min)  99.2 %
                             ****ORCA TERMINATED NORMALLY****
TOTAL RUN TIME: 0 days 6 hours 36 minutes 34 seconds 343 msec
