 
                                 *****************
                                 * O   R   C   A *
                                 *****************

                                            #,                                       
                                            ###                                      
                                            ####                                     
                                            #####                                    
                                            ######                                   
                                           ########,                                 
                                     ,,################,,,,,                         
                               ,,#################################,,                 
                          ,,##########################################,,             
                       ,#########################################, ''#####,          
                    ,#############################################,,   '####,        
                  ,##################################################,,,,####,       
                ,###########''''           ''''###############################       
              ,#####''   ,,,,##########,,,,          '''####'''          '####       
            ,##' ,,,,###########################,,,                        '##       
           ' ,,###''''                  '''############,,,                           
         ,,##''                                '''############,,,,        ,,,,,,###''
      ,#''                                            '''#######################'''  
     '                                                          ''''####''''         
             ,#######,   #######,   ,#######,      ##                                
            ,#'     '#,  ##    ##  ,#'     '#,    #''#        ######   ,####,        
            ##       ##  ##   ,#'  ##            #'  '#       #        #'  '#        
            ##       ##  #######   ##           ,######,      #####,   #    #        
            '#,     ,#'  ##    ##  '#,     ,#' ,#      #,         ##   #,  ,#        
             '#######'   ##     ##  '#######'  #'      '#     #####' # '####'        



                  #######################################################
                  #                        -***-                        #
                  #          Department of theory and spectroscopy      #
                  #    Directorship and core code : Frank Neese         #
                  #        Max Planck Institute fuer Kohlenforschung    #
                  #                Kaiser Wilhelm Platz 1               #
                  #                 D-45470 Muelheim/Ruhr               #
                  #                      Germany                        #
                  #                                                     #
                  #                  All rights reserved                #
                  #                        -***-                        #
                  #######################################################


                         Program Version 5.0.4 -  RELEASE  -


 With contributions from (in alphabetic order):
   Daniel Aravena         : Magnetic Suceptibility
   Michael Atanasov       : Ab Initio Ligand Field Theory (pilot matlab implementation)
   Alexander A. Auer      : GIAO ZORA, VPT2 properties, NMR spectrum
   Ute Becker             : Parallelization
   Giovanni Bistoni       : ED, misc. LED, open-shell LED, HFLD
   Martin Brehm           : Molecular dynamics
   Dmytro Bykov           : SCF Hessian
   Vijay G. Chilkuri      : MRCI spin determinant printing, contributions to CSF-ICE
   Dipayan Datta          : RHF DLPNO-CCSD density
   Achintya Kumar Dutta   : EOM-CC, STEOM-CC
   Dmitry Ganyushin       : Spin-Orbit,Spin-Spin,Magnetic field MRCI
   Miquel Garcia          : C-PCM and meta-GGA Hessian, CC/C-PCM, Gaussian charge scheme
   Yang Guo               : DLPNO-NEVPT2, F12-NEVPT2, CIM, IAO-localization
   Andreas Hansen         : Spin unrestricted coupled pair/coupled cluster methods
   Benjamin Helmich-Paris : MC-RPA, TRAH-SCF, COSX integrals
   Lee Huntington         : MR-EOM, pCC
   Robert Izsak           : Overlap fitted RIJCOSX, COSX-SCS-MP3, EOM
   Marcus Kettner         : VPT2
   Christian Kollmar      : KDIIS, OOCD, Brueckner-CCSD(T), CCSD density, CASPT2, CASPT2-K
   Simone Kossmann        : Meta GGA functionals, TD-DFT gradient, OOMP2, MP2 Hessian
   Martin Krupicka        : Initial AUTO-CI
   Lucas Lang             : DCDCAS
   Marvin Lechner         : AUTO-CI (C++ implementation), FIC-MRCC
   Dagmar Lenk            : GEPOL surface, SMD
   Dimitrios Liakos       : Extrapolation schemes; Compound Job, initial MDCI parallelization
   Dimitrios Manganas     : Further ROCIS development; embedding schemes
   Dimitrios Pantazis     : SARC Basis sets
   Anastasios Papadopoulos: AUTO-CI, single reference methods and gradients
   Taras Petrenko         : DFT Hessian,TD-DFT gradient, ASA, ECA, R-Raman, ABS, FL, XAS/XES, NRVS
   Peter Pinski           : DLPNO-MP2, DLPNO-MP2 Gradient
   Christoph Reimann      : Effective Core Potentials
   Marius Retegan         : Local ZFS, SOC
   Christoph Riplinger    : Optimizer, TS searches, QM/MM, DLPNO-CCSD(T), (RO)-DLPNO pert. Triples
   Tobias Risthaus        : Range-separated hybrids, TD-DFT gradient, RPA, STAB
   Michael Roemelt        : Original ROCIS implementation
   Masaaki Saitow         : Open-shell DLPNO-CCSD energy and density
   Barbara Sandhoefer     : DKH picture change effects
   Avijit Sen             : IP-ROCIS
   Kantharuban Sivalingam : CASSCF convergence, NEVPT2, FIC-MRCI
   Bernardo de Souza      : ESD, SOC TD-DFT
   Georgi Stoychev        : AutoAux, RI-MP2 NMR, DLPNO-MP2 response
   Willem Van den Heuvel  : Paramagnetic NMR
   Boris Wezisla          : Elementary symmetry handling
   Frank Wennmohs         : Technical directorship


 We gratefully acknowledge several colleagues who have allowed us to
 interface, adapt or use parts of their codes:
   Stefan Grimme, W. Hujo, H. Kruse, P. Pracht,  : VdW corrections, initial TS optimization,
                  C. Bannwarth, S. Ehlert          DFT functionals, gCP, sTDA/sTD-DF
   Ed Valeev, F. Pavosevic, A. Kumar             : LibInt (2-el integral package), F12 methods
   Garnet Chan, S. Sharma, J. Yang, R. Olivares  : DMRG
   Ulf Ekstrom                                   : XCFun DFT Library
   Mihaly Kallay                                 : mrcc  (arbitrary order and MRCC methods)
   Jiri Pittner, Ondrej Demel                    : Mk-CCSD
   Frank Weinhold                                : gennbo (NPA and NBO analysis)
   Christopher J. Cramer and Donald G. Truhlar   : smd solvation model
   Lars Goerigk                                  : TD-DFT with DH, B97 family of functionals
   V. Asgeirsson, H. Jonsson                     : NEB implementation
   FAccTs GmbH                                   : IRC, NEB, NEB-TS, DLPNO-Multilevel, CI-OPT
                                                   MM, QMMM, 2- and 3-layer-ONIOM, Crystal-QMMM,
                                                   LR-CPCM, SF, NACMEs, symmetry and pop. for TD-DFT,
                                                   nearIR, NL-DFT gradient (VV10), updates on ESD,
                                                   ML-optimized integration grids
   S Lehtola, MJT Oliveira, MAL Marques          : LibXC Library
   Liviu Ungur et al                             : ANISO software


 Your calculation uses the libint2 library for the computation of 2-el integrals
 For citations please refer to: http://libint.valeyev.net

 Your ORCA version has been built with support for libXC version: 5.1.0
 For citations please refer to: https://tddft.org/programs/libxc/

 This ORCA versions uses:
   CBLAS   interface :  Fast vector & matrix operations
   LAPACKE interface :  Fast linear algebra routines
   SCALAPACK package :  Parallel linear algebra routines
   Shared memory     :  Shared parallel matrices
   BLAS/LAPACK       :  OpenBLAS 0.3.15  USE64BITINT DYNAMIC_ARCH NO_AFFINITY Zen SINGLE_THREADED
        Core in use  :  Zen
   Copyright (c) 2011-2014, The OpenBLAS Project


Your calculation utilizes the atom-pairwise dispersion correction
with the Becke-Johnson damping scheme (D3BJ)
Cite in your paper:
S.Grimme, S.Ehrlich, L.Goerigk, J Comput Chem, (2011), 32, 1456–1465 
S.Grimme, J.Antony, S.Ehrlich and H.Krieg, J.Chem.Phys., 132, (2010), 154104 
   

================================================================================

----- Orbital basis set information -----
Your calculation utilizes the basis: 6-31++G(d,p)
   H-He, Li-Ne : W. J. Hehre, R. Ditchfield and J.A. Pople, J. Chem. Phys. 56, 2257 (1972).
                 Note: He and Ne are unpublished basis sets taken from the Gaussian program.
                 Note: Li and B from J. D. Dill and J. A. Pople, J. Chem. Phys. 62, 2921 (1975).
   Na - Ar     : M. M. Francl, W. J. Pietro, W. J. Hehre, J. S. Binkley, M. S. Gordon, 
                 D. J. DeFrees and J. A. Pople, J. Chem. Phys. 77, 3654 (1982).
   K - Zn      : V. A. Rassolov, J. A. Pople, M. A. Ratner, and T. L. Windus, J. Chem. Phys. 109, 1223 (1998).
   Additional Pol./Diff. from the 6-311G equivalent.

----- AuxJ basis set information -----
Your calculation utilizes the auxiliary basis: def2/J
   F. Weigend, Phys. Chem. Chem. Phys. 8, 1057 (2006).

================================================================================
                                        WARNINGS
                       Please study these warnings very carefully!
================================================================================


WARNING: your system is open-shell and RHF/RKS was chosen
  ===> : WILL SWITCH to UHF/UKS


INFO   : the flag for use of the SHARK integral package has been found!

================================================================================
                                       INPUT FILE
================================================================================
NAME = picolinate_water_mgcl2_freq.inp
|  1> # avogadro generated ORCA file
|  2> # C18H14N3O7MgCl2Cr | Frequencies | B3LYP/6-31G(d)
|  3> # 
|  4> ! B3LYP D3BJ 6-31++G(d,p) FREQ
|  5> 
|  6> %maxcore 1024
|  7> 
|  8> %pal
|  9>    nprocs 16
| 10> end
| 11> 
| 12> * xyz 0 4
| 13>    Cr     5.163496    0.087002   -0.057667
| 14>    O      4.405715   -0.480347   -1.745003
| 15>    O      5.873349    0.260010    1.824910
| 16>    O      6.600786    1.093080   -0.835420
| 17>    O      2.910512   -1.845696   -2.717431
| 18>    O      6.839528   -0.847029    3.479113
| 19>    O      7.247469    3.134714   -1.515514
| 20>    N      3.476684   -0.953313    0.642726
| 21>    N      6.359728   -1.608388    0.072327
| 22>    N      4.286534    1.956573   -0.009129
| 23>    C      2.834184   -1.569850   -0.364628
| 24>    C      6.915420   -1.776518    1.286434
| 25>    C      5.096128    2.882622   -0.550842
| 26>    C      3.394396   -1.304945   -1.746646
| 27>    C      6.526673   -0.721208    2.279718
| 28>    C      6.442535    2.373494   -1.028484
| 29>    C      3.041977   -1.101640    1.901625
| 30>    C      6.647639   -2.453465   -0.915169
| 31>    C      3.094727    2.316177    0.477497
| 32>    C      1.738424   -2.384890   -0.143043
| 33>    C      7.774234   -2.823523    1.566528
| 34>    C      4.722675    4.212002   -0.640617
| 35>    C      1.949948   -1.904606    2.194613
| 36>    C      7.511194   -3.523782   -0.714737
| 37>    C      2.657848    3.628482    0.425596
| 38>    C      1.293208   -2.561006    1.160990
| 39>    C      8.076070   -3.712120    0.538148
| 40>    C      3.482023    4.590096   -0.147648
| 41>    H      3.549130   -0.537936    2.675276
| 42>    H      6.177976   -2.252706   -1.867755
| 43>    H      2.493144    1.537351    0.921038
| 44>    H      1.267998   -2.855985   -0.993269
| 45>    H      8.191399   -2.936865    2.558858
| 46>    H      5.415139    4.909481   -1.087843
| 47>    H      1.629155   -2.001523    3.221564
| 48>    H      7.730909   -4.190674   -1.535484
| 49>    H      1.691256    3.885746    0.832712
| 50>    H      0.442107   -3.195358    1.368225
| 51>    H      8.749318   -4.538411    0.719139
| 52>    H      3.161537    5.621456   -0.202488
| 53>    O      4.066447    1.037652    4.055605
| 54>    H      4.199922    0.522433    4.865278
| 55>    H      4.926229    1.034670    3.620534
| 56>    Mg     6.796905   -1.781649    5.174877
| 57>    Cl     8.369892   -3.357478    5.221944
| 58>    Cl     4.981376   -1.208966    6.359355
| 59> *
| 60> 
| 61> 
| 62> 
| 63>                          ****END OF INPUT****
================================================================================

                       ****************************
                       * Single Point Calculation *
                       ****************************

---------------------------------
CARTESIAN COORDINATES (ANGSTROEM)
---------------------------------
  Cr     5.163496    0.087002   -0.057667
  O      4.405715   -0.480347   -1.745003
  O      5.873349    0.260010    1.824910
  O      6.600786    1.093080   -0.835420
  O      2.910512   -1.845696   -2.717431
  O      6.839528   -0.847029    3.479113
  O      7.247469    3.134714   -1.515514
  N      3.476684   -0.953313    0.642726
  N      6.359728   -1.608388    0.072327
  N      4.286534    1.956573   -0.009129
  C      2.834184   -1.569850   -0.364628
  C      6.915420   -1.776518    1.286434
  C      5.096128    2.882622   -0.550842
  C      3.394396   -1.304945   -1.746646
  C      6.526673   -0.721208    2.279718
  C      6.442535    2.373494   -1.028484
  C      3.041977   -1.101640    1.901625
  C      6.647639   -2.453465   -0.915169
  C      3.094727    2.316177    0.477497
  C      1.738424   -2.384890   -0.143043
  C      7.774234   -2.823523    1.566528
  C      4.722675    4.212002   -0.640617
  C      1.949948   -1.904606    2.194613
  C      7.511194   -3.523782   -0.714737
  C      2.657848    3.628482    0.425596
  C      1.293208   -2.561006    1.160990
  C      8.076070   -3.712120    0.538148
  C      3.482023    4.590096   -0.147648
  H      3.549130   -0.537936    2.675276
  H      6.177976   -2.252706   -1.867755
  H      2.493144    1.537351    0.921038
  H      1.267998   -2.855985   -0.993269
  H      8.191399   -2.936865    2.558858
  H      5.415139    4.909481   -1.087843
  H      1.629155   -2.001523    3.221564
  H      7.730909   -4.190674   -1.535484
  H      1.691256    3.885746    0.832712
  H      0.442107   -3.195358    1.368225
  H      8.749318   -4.538411    0.719139
  H      3.161537    5.621456   -0.202488
  O      4.066447    1.037652    4.055605
  H      4.199922    0.522433    4.865278
  H      4.926229    1.034670    3.620534
  Mg     6.796905   -1.781649    5.174877
  Cl     8.369892   -3.357478    5.221944
  Cl     4.981376   -1.208966    6.359355

----------------------------
CARTESIAN COORDINATES (A.U.)
----------------------------
  NO LB      ZA    FRAG     MASS         X           Y           Z
   0 Cr   24.0000    0    52.000    9.757593    0.164410   -0.108975
   1 O     8.0000    0    15.999    8.325595   -0.907724   -3.297578
   2 O     8.0000    0    15.999   11.099021    0.491348    3.448580
   3 O     8.0000    0    15.999   12.473678    2.065622   -1.578715
   4 O     8.0000    0    15.999    5.500071   -3.487860   -5.135200
   5 O     8.0000    0    15.999   12.924835   -1.600653    6.574571
   6 O     8.0000    0    15.999   13.695732    5.923751   -2.863906
   7 N     7.0000    0    14.007    6.569981   -1.801500    1.214576
   8 N     7.0000    0    14.007   12.018144   -3.039413    0.136678
   9 N     7.0000    0    14.007    8.100375    3.697387   -0.017251
  10 C     6.0000    0    12.011    5.355832   -2.966587   -0.689047
  11 C     6.0000    0    12.011   13.068250   -3.357132    2.431008
  12 C     6.0000    0    12.011    9.630286    5.447366   -1.040941
  13 C     6.0000    0    12.011    6.414479   -2.465989   -3.300683
  14 C     6.0000    0    12.011   12.333625   -1.362886    4.308043
  15 C     6.0000    0    12.011   12.174627    4.485254   -1.943553
  16 C     6.0000    0    12.011    5.748503   -2.081798    3.593550
  17 C     6.0000    0    12.011   12.562217   -4.636377   -1.729419
  18 C     6.0000    0    12.011    5.848186    4.376940    0.902339
  19 C     6.0000    0    12.011    3.285145   -4.506789   -0.270312
  20 C     6.0000    0    12.011   14.691173   -5.335685    2.960309
  21 C     6.0000    0    12.011    8.924562    7.959530   -1.210591
  22 C     6.0000    0    12.011    3.684868   -3.599184    4.147218
  23 C     6.0000    0    12.011   14.194100   -6.658983   -1.350657
  24 C     6.0000    0    12.011    5.022605    6.856837    0.804260
  25 C     6.0000    0    12.011    2.443809   -4.839600    2.193953
  26 C     6.0000    0    12.011   15.261561   -7.014890    1.016952
  27 C     6.0000    0    12.011    6.580070    8.674024   -0.279014
  28 H     1.0000    0     1.008    6.706884   -1.016552    5.055539
  29 H     1.0000    0     1.008   11.674683   -4.256997   -3.529545
  30 H     1.0000    0     1.008    4.711359    2.905172    1.740510
  31 H     1.0000    0     1.008    2.396169   -5.397029   -1.877006
  32 H     1.0000    0     1.008   15.479501   -5.549871    4.835541
  33 H     1.0000    0     1.008   10.233130    9.277575   -2.055725
  34 H     1.0000    0     1.008    3.078657   -3.782330    6.087874
  35 H     1.0000    0     1.008   14.609301   -7.919226   -2.901644
  36 H     1.0000    0     1.008    3.196011    7.342996    1.573598
  37 H     1.0000    0     1.008    0.835461   -6.038352    2.585571
  38 H     1.0000    0     1.008   16.533815   -8.576354    1.358976
  39 H     1.0000    0     1.008    5.974439   10.623012   -0.382647
  40 O     8.0000    0    15.999    7.684471    1.960878    7.663983
  41 H     1.0000    0     1.008    7.936702    0.987255    9.194043
  42 H     1.0000    0     1.008    9.309224    1.955243    6.841818
  43 Mg   12.0000    0    24.305   12.844289   -3.366829    9.779100
  44 Cl   17.0000    0    35.453   15.816804   -6.344714    9.868044
  45 Cl   17.0000    0    35.453    9.413436   -2.284615   12.017439

--------------------------------
INTERNAL COORDINATES (ANGSTROEM)
--------------------------------
 Cr     0   0   0     0.000000000000     0.00000000     0.00000000
 O      1   0   0     1.934740217357     0.00000000     0.00000000
 O      1   2   0     2.019385849857   167.38084524     0.00000000
 O      1   2   3     1.919087078585    95.37209594   137.74627720
 O      2   1   4     2.246202599543   144.73863922   169.58810746
 O      3   1   4     2.212560682280   143.86460597   251.97616764
 O      4   1   2     2.246997138690   144.54221331    93.86591847
 N      1   2   5     2.101937291410    80.27911339   346.33509110
 N      1   2   5     2.078994153421    92.33599622    78.10549738
 N      1   2   5     2.065602578167    96.87023169   251.69123528
 C      8   1   2     1.344502214087   111.14897617     6.04118869
 C      9   1   2     1.345777508808   113.32066506   192.51112400
 C     10   1   2     1.344046937278   111.00248625   267.30443248
 C      5   2   1     1.212014391698    27.90687137    12.12236148
 C      6   3   1     1.245896280230    28.36731023    18.02364363
 C      7   4   1     1.210195378299    27.77966386     0.96133435
 C      8   1   2     1.340073791617   128.91265718   183.05243815
 C      9   1   2     1.331238607413   126.56495600    15.67792320
 C     10   1   2     1.336609077457   129.09624790    87.89802091
 C     11   8   1     1.383502833906   121.91282572   176.06257939
 C     12   9   1     1.382835350089   122.26028524   181.83989065
 C     13  10   1     1.383754992126   121.70250509   179.53994048
 C     17   8   1     1.386767356892   121.19893055   184.48068336
 C     18   9   1     1.389776494670   121.08375125   177.15236614
 C     19  10   1     1.384088648702   121.52595528   180.11333445
 C     20  11   8     1.389149450995   118.61193502     0.26146762
 C     24  18   9     1.387183088437   119.19894224     0.20885289
 C     22  13  10     1.387512483872   118.68915769     0.43777309
 H     17   8   1     1.083283081575   117.48051682     7.02467466
 H     18   9   1     1.080882785988   116.22256600   357.46761829
 H     19  10   1     1.079444608512   116.89865176     0.67465875
 H     20  11   8     1.079868219542   118.41983934   180.28306208
 H     21  12   9     1.082400977036   120.28733975   180.93334165
 H     22  13  10     1.079812225256   118.31659824   180.11795616
 H     23  17   8     1.080245069481   119.12042609   179.89766783
 H     24  18   9     1.080113539818   119.49266707   180.31914506
 H     25  19  10     1.079920505230   119.62050744   180.31252755
 H     26  20  11     1.081536738780   120.42703174   180.27990104
 H     27  24  18     1.081100100946   120.56819738   179.88914738
 H     28  22  13     1.081398239039   120.45526966   179.95855197
 O     29  17   8     2.157638193135   161.64493032    90.90561000
 H     41  29  17     0.968935787612   100.33022213   133.78824840
 H     41  29  17     0.963597818018    85.57364544   237.88486747
 Mg     6   3   1     1.936736122507   152.43191732   259.17607786
 Cl    44   6   3     2.227047471856   110.14663390   149.13406871
 Cl    44   6   3     2.242119421622   110.92317367   338.78720995

---------------------------
INTERNAL COORDINATES (A.U.)
---------------------------
 Cr     0   0   0     0.000000000000     0.00000000     0.00000000
 O      1   0   0     3.656129151088     0.00000000     0.00000000
 O      1   2   0     3.816086214945   167.38084524     0.00000000
 O      1   2   3     3.626549005673    95.37209594   137.74627720
 O      2   1   4     4.244707754438   144.73863922   169.58810746
 O      3   1   4     4.181133744191   143.86460597   251.97616764
 O      4   1   2     4.246209215829   144.54221331    93.86591847
 N      1   2   5     3.972085831440    80.27911339   346.33509110
 N      1   2   5     3.928729583990    92.33599622    78.10549738
 N      1   2   5     3.903423174257    96.87023169   251.69123528
 C      8   1   2     2.540740971075   111.14897617     6.04118869
 C      9   1   2     2.543150928838   113.32066506   192.51112400
 C     10   1   2     2.539880622591   111.00248625   267.30443248
 C      5   2   1     2.290375270680    27.90687137    12.12236148
 C      6   3   1     2.354402760906    28.36731023    18.02364363
 C      7   4   1     2.286937833522    27.77966386     0.96133435
 C      8   1   2     2.532372465402   128.91265718   183.05243815
 C      9   1   2     2.515676386913   126.56495600    15.67792320
 C     10   1   2     2.525825104507   129.09624790    87.89802091
 C     11   8   1     2.614441461586   121.91282572   176.06257939
 C     12   9   1     2.613180099974   122.26028524   181.83989065
 C     13  10   1     2.614917971565   121.70250509   179.53994048
 C     17   8   1     2.620610515988   121.19893055   184.48068336
 C     18   9   1     2.626296962288   121.08375125   177.15236614
 C     19  10   1     2.615548491117   121.52595528   180.11333445
 C     20  11   8     2.625112021468   118.61193502     0.26146762
 C     24  18   9     2.621396134753   119.19894224     0.20885289
 C     22  13  10     2.622018601915   118.68915769     0.43777309
 H     17   8   1     2.047108349686   117.48051682     7.02467466
 H     18   9   1     2.042572448388   116.22256600   357.46761829
 H     19  10   1     2.039854686826   116.89865176     0.67465875
 H     20  11   8     2.040655195660   118.41983934   180.28306208
 H     21  12   9     2.045441413687   120.28733975   180.93334165
 H     22  13  10     2.040549381795   118.31659824   180.11795616
 H     23  17   8     2.041367338839   119.12042609   179.89766783
 H     24  18   9     2.041118783796   119.49266707   180.31914506
 H     25  19  10     2.040754001290   119.62050744   180.31252755
 H     26  20  11     2.043808240068   120.42703174   180.27990104
 H     27  24  18     2.042983114143   120.56819738   179.88914738
 H     28  22  13     2.043546513488   120.45526966   179.95855197
 O     29  17   8     4.077345281113   161.64493032    90.90561000
 H     41  29  17     1.831023279942   100.33022213   133.78824840
 H     41  29  17     1.820935979298    85.57364544   237.88486747
 Mg     6   3   1     3.659900865212   152.43191732   259.17607786
 Cl    44   6   3     4.208509809049   110.14663390   149.13406871
 Cl    44   6   3     4.236991666411   110.92317367   338.78720995

---------------------
BASIS SET INFORMATION
---------------------
There are 7 groups of distinct atoms

 Group   1 Type Cr  : 23s18p5d1f contracted to 6s6p3d1f pattern {666311/663111/311/1}
 Group   2 Type O   : 11s5p1d contracted to 4s3p1d pattern {6311/311/1}
 Group   3 Type N   : 11s5p1d contracted to 4s3p1d pattern {6311/311/1}
 Group   4 Type C   : 11s5p1d contracted to 4s3p1d pattern {6311/311/1}
 Group   5 Type H   : 5s1p contracted to 3s1p pattern {311/1}
 Group   6 Type Mg  : 17s11p1d contracted to 5s4p1d pattern {66311/6311/1}
 Group   7 Type Cl  : 17s11p1d contracted to 5s4p1d pattern {66311/6311/1}

Atom   0Cr   basis set group =>   1
Atom   1O    basis set group =>   2
Atom   2O    basis set group =>   2
Atom   3O    basis set group =>   2
Atom   4O    basis set group =>   2
Atom   5O    basis set group =>   2
Atom   6O    basis set group =>   2
Atom   7N    basis set group =>   3
Atom   8N    basis set group =>   3
Atom   9N    basis set group =>   3
Atom  10C    basis set group =>   4
Atom  11C    basis set group =>   4
Atom  12C    basis set group =>   4
Atom  13C    basis set group =>   4
Atom  14C    basis set group =>   4
Atom  15C    basis set group =>   4
Atom  16C    basis set group =>   4
Atom  17C    basis set group =>   4
Atom  18C    basis set group =>   4
Atom  19C    basis set group =>   4
Atom  20C    basis set group =>   4
Atom  21C    basis set group =>   4
Atom  22C    basis set group =>   4
Atom  23C    basis set group =>   4
Atom  24C    basis set group =>   4
Atom  25C    basis set group =>   4
Atom  26C    basis set group =>   4
Atom  27C    basis set group =>   4
Atom  28H    basis set group =>   5
Atom  29H    basis set group =>   5
Atom  30H    basis set group =>   5
Atom  31H    basis set group =>   5
Atom  32H    basis set group =>   5
Atom  33H    basis set group =>   5
Atom  34H    basis set group =>   5
Atom  35H    basis set group =>   5
Atom  36H    basis set group =>   5
Atom  37H    basis set group =>   5
Atom  38H    basis set group =>   5
Atom  39H    basis set group =>   5
Atom  40O    basis set group =>   2
Atom  41H    basis set group =>   5
Atom  42H    basis set group =>   5
Atom  43Mg   basis set group =>   6
Atom  44Cl   basis set group =>   7
Atom  45Cl   basis set group =>   7
---------------------------------
AUXILIARY/J BASIS SET INFORMATION
---------------------------------
There are 7 groups of distinct atoms

 Group   1 Type Cr  : 19s5p5d3f3g contracted to 8s5p5d2f3g pattern {121111111/11111/11111/21/111}
 Group   2 Type O   : 12s5p4d2f1g contracted to 6s4p3d1f1g pattern {711111/2111/211/2/1}
 Group   3 Type N   : 12s5p4d2f1g contracted to 6s4p3d1f1g pattern {711111/2111/211/2/1}
 Group   4 Type C   : 12s5p4d2f1g contracted to 6s4p3d1f1g pattern {711111/2111/211/2/1}
 Group   5 Type H   : 5s2p1d contracted to 3s1p1d pattern {311/2/1}
 Group   6 Type Mg  : 14s5p5d2f1g contracted to 8s4p4d1f1g pattern {71111111/2111/2111/2/1}
 Group   7 Type Cl  : 14s5p5d2f1g contracted to 8s4p3d1f1g pattern {71111111/2111/311/2/1}

Atom   0Cr   basis set group =>   1
Atom   1O    basis set group =>   2
Atom   2O    basis set group =>   2
Atom   3O    basis set group =>   2
Atom   4O    basis set group =>   2
Atom   5O    basis set group =>   2
Atom   6O    basis set group =>   2
Atom   7N    basis set group =>   3
Atom   8N    basis set group =>   3
Atom   9N    basis set group =>   3
Atom  10C    basis set group =>   4
Atom  11C    basis set group =>   4
Atom  12C    basis set group =>   4
Atom  13C    basis set group =>   4
Atom  14C    basis set group =>   4
Atom  15C    basis set group =>   4
Atom  16C    basis set group =>   4
Atom  17C    basis set group =>   4
Atom  18C    basis set group =>   4
Atom  19C    basis set group =>   4
Atom  20C    basis set group =>   4
Atom  21C    basis set group =>   4
Atom  22C    basis set group =>   4
Atom  23C    basis set group =>   4
Atom  24C    basis set group =>   4
Atom  25C    basis set group =>   4
Atom  26C    basis set group =>   4
Atom  27C    basis set group =>   4
Atom  28H    basis set group =>   5
Atom  29H    basis set group =>   5
Atom  30H    basis set group =>   5
Atom  31H    basis set group =>   5
Atom  32H    basis set group =>   5
Atom  33H    basis set group =>   5
Atom  34H    basis set group =>   5
Atom  35H    basis set group =>   5
Atom  36H    basis set group =>   5
Atom  37H    basis set group =>   5
Atom  38H    basis set group =>   5
Atom  39H    basis set group =>   5
Atom  40O    basis set group =>   2
Atom  41H    basis set group =>   5
Atom  42H    basis set group =>   5
Atom  43Mg   basis set group =>   6
Atom  44Cl   basis set group =>   7
Atom  45Cl   basis set group =>   7


           ************************************************************
           *        Program running with 16 parallel MPI-processes    *
           *              working on a common directory               *
           ************************************************************
------------------------------------------------------------------------------
                           ORCA GTO INTEGRAL CALCULATION
                           -- RI-GTO INTEGRALS CHOSEN --
------------------------------------------------------------------------------
------------------------------------------------------------------------------
                   ___                                                        
                  /   \      - P O W E R E D   B Y -                         
                 /     \                                                     
                 |  |  |   _    _      __       _____    __    __             
                 |  |  |  | |  | |    /  \     |  _  \  |  |  /  |          
                  \  \/   | |  | |   /    \    | | | |  |  | /  /          
                 / \  \   | |__| |  /  /\  \   | |_| |  |  |/  /          
                |  |  |   |  __  | /  /__\  \  |    /   |      \           
                |  |  |   | |  | | |   __   |  |    \   |  |\   \          
                \     /   | |  | | |  |  |  |  | |\  \  |  | \   \       
                 \___/    |_|  |_| |__|  |__|  |_| \__\ |__|  \__/        
                                                                              
                      - O R C A' S   B I G   F R I E N D -                    
                                      &                                       
                       - I N T E G R A L  F E E D E R -                       
                                                                              
 v1 FN, 2020, v2 2021                                                         
------------------------------------------------------------------------------


Reading SHARK input file picolinate_water_mgcl2_freq.SHARKINP.tmp ... ok
----------------------
SHARK INTEGRAL PACKAGE
----------------------

Number of atoms                             ...     46
Number of basis functions                   ...    700
Number of shells                            ...    326
Maximum angular momentum                    ...      3
Integral batch strategy                     ... SHARK/LIBINT Hybrid
RI-J (if used) integral strategy            ... SPLIT-RIJ (Revised 2003 algorithm where possible)
Printlevel                                  ...      1
Contraction scheme used                     ... SEGMENTED contraction
Coulomb Range Separation                    ... NOT USED
Exchange Range Separation                   ... NOT USED
Finite Nucleus Model                        ... NOT USED
Auxiliary Coulomb fitting basis             ... AVAILABLE
   # of basis functions in Aux-J            ...   1773
   # of shells in Aux-J                     ...    565
   Maximum angular momentum in Aux-J        ...      4
Auxiliary J/K fitting basis                 ... NOT available
Auxiliary Correlation fitting basis         ... NOT available
Auxiliary 'external' fitting basis          ... NOT available
Integral threshold                          ...     1.000000e-10
Primitive cut-off                           ...     1.000000e-11
Primitive pair pre-selection threshold      ...     1.000000e-11

Calculating pre-screening integrals         ... done (  0.0 sec) Dimension = 326
Organizing shell pair data                  ... done (  0.3 sec)
Shell pair information
Total number of shell pairs                 ...     53301
Shell pairs after pre-screening             ...     41925
Total number of primitive shell pairs       ...    242032
Primitive shell pairs kept                  ...    111425
          la=0 lb=0:  11984 shell pairs
          la=1 lb=0:  16556 shell pairs
          la=1 lb=1:   5771 shell pairs
          la=2 lb=0:   4062 shell pairs
          la=2 lb=1:   2950 shell pairs
          la=2 lb=2:    326 shell pairs
          la=3 lb=0:    143 shell pairs
          la=3 lb=1:    101 shell pairs
          la=3 lb=2:     31 shell pairs
          la=3 lb=3:      1 shell pairs

Calculating one electron integrals          ... done (  0.0 sec)
Calculating RI/J V-Matrix + Cholesky decomp.... done (  0.1 sec)
Calculating Nuclear repulsion               ... done (  0.0 sec) ENN=   4443.178379897606 Eh

SHARK setup successfully completed in   0.8 seconds

Maximum memory used throughout the entire GTOINT-calculation: 66.2 MB


           ************************************************************
           *        Program running with 16 parallel MPI-processes    *
           *              working on a common directory               *
           ************************************************************
-------------------------------------------------------------------------------
                                 ORCA SCF
-------------------------------------------------------------------------------

------------
SCF SETTINGS
------------
Hamiltonian:
 Density Functional     Method          .... DFT(GTOs)
 Exchange Functional    Exchange        .... B88
   X-Alpha parameter    XAlpha          ....  0.666667
   Becke's b parameter  XBeta           ....  0.004200
 Correlation Functional Correlation     .... LYP
 LDA part of GGA corr.  LDAOpt          .... VWN-5
 Gradients option       PostSCFGGA      .... off
 Hybrid DFT is turned on
   Fraction HF Exchange ScalHFX         ....  0.200000
   Scaling of DF-GGA-X  ScalDFX         ....  0.720000
   Scaling of DF-GGA-C  ScalDFC         ....  0.810000
   Scaling of DF-LDA-C  ScalLDAC        ....  1.000000
   Perturbative correction              ....  0.000000
   Density functional embedding theory  .... OFF
   NL short-range parameter             ....  4.800000
 RI-approximation to the Coulomb term is turned on
   Number of AuxJ basis functions       .... 1773
   RIJ-COSX (HFX calculated with COS-X)).... on


General Settings:
 Integral files         IntName         .... picolinate_water_mgcl2_freq
 Hartree-Fock type      HFTyp           .... UHF
 Total Charge           Charge          ....    0
 Multiplicity           Mult            ....    4
 Number of Electrons    NEL             ....  269
 Basis Dimension        Dim             ....  700
 Nuclear Repulsion      ENuc            ....   4443.1783798976 Eh

Convergence Acceleration:
 DIIS                   CNVDIIS         .... on
   Start iteration      DIISMaxIt       ....    12
   Startup error        DIISStart       ....  0.200000
   # of expansion vecs  DIISMaxEq       ....     5
   Bias factor          DIISBfac        ....   1.050
   Max. coefficient     DIISMaxC        ....  10.000
 Trust-Rad. Augm. Hess. CNVTRAH         .... auto
   Auto Start mean grad. ratio tolernc. ....  1.125000
   Auto Start start iteration           ....    20
   Auto Start num. interpolation iter.  ....    10
   Max. Number of Micro iterations      ....    16
   Max. Number of Macro iterations      .... Maxiter - #DIIS iter
   Number of Davidson start vectors     ....     2
   Converg. threshold I  (grad. norm)   ....   5.000e-05
   Converg. threshold II (energy diff.) ....   1.000e-06
   Grad. Scal. Fac. for Micro threshold ....   0.100
   Minimum threshold for Micro iter.    ....   0.010
   NR start threshold (gradient norm)   ....   0.001
   Initial trust radius                 ....   0.400
   Minimum AH scaling param. (alpha)    ....   1.000
   Maximum AH scaling param. (alpha)    .... 1000.000
   Orbital update algorithm             .... Taylor
   White noise on init. David. guess    .... on
   Maximum white noise                  ....   0.010
   Quad. conv. algorithm                .... NR
 SOSCF                  CNVSOSCF        .... off
 Level Shifting         CNVShift        .... on
   Level shift para.    LevelShift      ....    0.2500
   Turn off err/grad.   ShiftErr        ....    0.0010
 Zerner damping         CNVZerner       .... off
 Static damping         CNVDamp         .... on
   Fraction old density DampFac         ....    0.7000
   Max. Damping (<1)    DampMax         ....    0.9800
   Min. Damping (>=0)   DampMin         ....    0.0000
   Turn off err/grad.   DampErr         ....    0.1000
 Fernandez-Rico         CNVRico         .... off

SCF Procedure:
 Maximum # iterations   MaxIter         ....   125
 SCF integral mode      SCFMode         .... Direct
   Integral package                     .... SHARK and LIBINT hybrid scheme
 Reset frequency        DirectResetFreq ....    20
 Integral Threshold     Thresh          ....  1.000e-10 Eh
 Primitive CutOff       TCut            ....  1.000e-11 Eh

Convergence Tolerance:
 Convergence Check Mode ConvCheckMode   .... Total+1el-Energy
 Convergence forced     ConvForced      .... 0
 Energy Change          TolE            ....  1.000e-06 Eh
 1-El. energy change                    ....  1.000e-03 Eh
 DIIS Error             TolErr          ....  1.000e-06


Diagonalization of the overlap matrix:
Smallest eigenvalue                        ... 5.086e-07
Time for diagonalization                   ...    0.082 sec
Threshold for overlap eigenvalues          ... 1.000e-08
Number of eigenvalues below threshold      ... 0
Time for construction of square roots      ...    0.077 sec
Total time needed                          ...    0.163 sec

Time for model grid setup =    0.279 sec

------------------------------
INITIAL GUESS: MODEL POTENTIAL
------------------------------
Loading Hartree-Fock densities                     ... done
Calculating cut-offs                               ... done
Initializing the effective Hamiltonian             ... done
Setting up the integral package (SHARK)            ... done
Starting the Coulomb interaction                   ... done (   0.3 sec)
Reading the grid                                   ... done
Mapping shells                                     ... done
Starting the XC term evaluation                    ... done (   0.3 sec)
  promolecular density results
     # of electrons  =    268.991717607
     EX              =   -292.558221049
     EC              =     -9.947823089
     EX+EC           =   -302.506044138
Transforming the Hamiltonian                       ... done (   0.1 sec)
Diagonalizing the Hamiltonian                      ... done (   0.1 sec)
Back transforming the eigenvectors                 ... done (   0.0 sec)
Now organizing SCF variables                       ... done
                      ------------------
                      INITIAL GUESS DONE (   1.1 sec)
                      ------------------
-------------------
DFT GRID GENERATION
-------------------

General Integration Accuracy     IntAcc      ... 4.388
Radial Grid Type                 RadialGrid  ... OptM3 with GC (2021)
Angular Grid (max. ang.)         AngularGrid ... 4 (Lebedev-302)
Angular grid pruning method      GridPruning ... 4 (adaptive)
Weight generation scheme         WeightScheme... Becke
Basis function cutoff            BFCut       ... 1.0000e-10
Integration weight cutoff        WCut        ... 1.0000e-14
Angular grids for H and He will be reduced by one unit
Partially contracted basis set               ... off
Rotationally invariant grid construction     ... off

Total number of grid points                  ...   254101
Total number of batches                      ...     3995
Average number of points per batch           ...       63
Average number of grid points per atom       ...     5524
Time for grid setup =    1.337 sec

--------------------
COSX GRID GENERATION
--------------------

GRIDX 1
-------
General Integration Accuracy     IntAcc      ... 3.816
Radial Grid Type                 RadialGrid  ... OptM3 with GC (2021)
Angular Grid (max. ang.)         AngularGrid ... 1 (Lebedev-50)
Angular grid pruning method      GridPruning ... 4 (adaptive)
Weight generation scheme         WeightScheme... Becke
Basis function cutoff            BFCut       ... 1.0000e-10
Integration weight cutoff        WCut        ... 1.0000e-14
Angular grids for H and He will be reduced by one unit
Partially contracted basis set               ... on
Rotationally invariant grid construction     ... off

Total number of grid points                  ...    31403
Total number of batches                      ...      511
Average number of points per batch           ...       61
Average number of grid points per atom       ...      683
UseSFitting                                  ... on

GRIDX 2
-------
General Integration Accuracy     IntAcc      ... 4.020
Radial Grid Type                 RadialGrid  ... OptM3 with GC (2021)
Angular Grid (max. ang.)         AngularGrid ... 2 (Lebedev-110)
Angular grid pruning method      GridPruning ... 4 (adaptive)
Weight generation scheme         WeightScheme... Becke
Basis function cutoff            BFCut       ... 1.0000e-10
Integration weight cutoff        WCut        ... 1.0000e-14
Angular grids for H and He will be reduced by one unit
Partially contracted basis set               ... on
Rotationally invariant grid construction     ... off

Total number of grid points                  ...    75784
Total number of batches                      ...     1210
Average number of points per batch           ...       62
Average number of grid points per atom       ...     1647
UseSFitting                                  ... on

GRIDX 3
-------
General Integration Accuracy     IntAcc      ... 4.338
Radial Grid Type                 RadialGrid  ... OptM3 with GC (2021)
Angular Grid (max. ang.)         AngularGrid ... 3 (Lebedev-194)
Angular grid pruning method      GridPruning ... 4 (adaptive)
Weight generation scheme         WeightScheme... Becke
Basis function cutoff            BFCut       ... 1.0000e-10
Integration weight cutoff        WCut        ... 1.0000e-14
Angular grids for H and He will be reduced by one unit
Partially contracted basis set               ... on
Rotationally invariant grid construction     ... off

Total number of grid points                  ...   167789
Total number of batches                      ...     2646
Average number of points per batch           ...       63
Average number of grid points per atom       ...     3648
UseSFitting                                  ... on

Time for X-Grid setup             =    1.712 sec

--------------
SCF ITERATIONS
--------------
ITER       Energy         Delta-E        Max-DP      RMS-DP      [F,P]     Damp
               ***  Starting incremental Fock matrix formation  ***
  0  -3548.2350024928   0.000000000000207.72865704  0.33690251  0.1864026 0.7000
  1  -3547.9945919757   0.24041051707065.12704508  0.13848361  0.1975443 0.7000
                               ***Turning on DIIS***
  2  -3548.5584877865  -0.563895810760128.82302774  0.23543034  0.0384234 0.0000
  3  -3549.2871095920  -0.72862180556276.96996911  0.13008282  0.0772324 0.0000
  4  -3549.3168129893  -0.02970339725723.20105417  0.03963671  0.1235460 0.7000
  5  -3549.3886254008  -0.07181241156863.32882571  0.11008289  0.0920967 0.0000
  6  -3549.5404944483  -0.15186904742916.64159390  0.02483965  0.0132617 0.0000
  7  -3549.5513960072  -0.010901558948 9.12010248  0.01548767  0.0109294 0.0000
  8  -3549.5577278642  -0.006331856959 3.19117605  0.01026534  0.0045962 0.0000
  9  -3549.5593273146  -0.001599450434 3.72214430  0.01466583  0.0020774 0.0000
 10  -3549.5599858762  -0.000658561578 7.63664467  0.01984073  0.0013070 0.0000
 11  -3549.5602490813  -0.000263205158 3.22809101  0.01247306  0.0010497 0.0000
 12  -3549.5603544938  -0.000105412440 3.47049070  0.01212098  0.0004053 0.0000
               *** Restarting incremental Fock matrix formation ***
                                   *** Resetting DIIS ***
 13  -3549.5602731794   0.000081314402 7.31900562  0.01986494  0.0008532 0.0000
 14  -3549.5602134826   0.000059696737 0.67422459  0.00443246  0.0019541 0.0000
 15  -3549.5602841773  -0.000070694701 2.37937287  0.00945781  0.0005985 0.0000
 16  -3549.5602943938  -0.000010216418 4.62817347  0.01083086  0.0001187 0.0000
 17  -3549.5602954080  -0.000001014209 1.74765057  0.00529337  0.0001655 0.0000
 18  -3549.5602958380  -0.000000429978 1.87400458  0.00782252  0.0000725 0.0000
 19  -3549.5602949175   0.000000920477 1.63266881  0.00640432  0.0000780 0.0000
 20  -3549.5602935705   0.000001347002 3.28498986  0.00629364  0.0000195 0.0000
                 **** Energy Check signals convergence ****

               *****************************************************
               *                     SUCCESS                       *
               *           SCF CONVERGED AFTER  21 CYCLES          *
               *****************************************************

Old exchange energy                            =    -58.910670174 Eh
New exchange energy                            =    -58.910619271 Eh
Exchange energy change after final integration =      0.000050903 Eh
Total energy after final integration           =  -3549.560242366 Eh
Final COS-X integration done in                =    18.440 sec

----------------
TOTAL SCF ENERGY
----------------

Total Energy       :        -3549.56024237 Eh          -96588.44466 eV

Components:
Nuclear Repulsion  :         4443.17837990 Eh          120905.03041 eV
Electronic Energy  :        -7992.73862226 Eh         -217493.47507 eV
One Electron Energy:       -13727.82717722 Eh         -373553.16857 eV
Two Electron Energy:         5735.08855495 Eh          156059.69350 eV
Max COSX asymmetry :            0.00001443 Eh               0.00039 eV

Virial components:
Potential Energy   :        -7086.47835063 Eh         -192832.87935 eV
Kinetic Energy     :         3536.91810826 Eh           96244.43470 eV
Virial Ratio       :            2.00357434


DFT components:
N(Alpha)           :      135.999948351161 electrons
N(Beta)            :      132.999961778626 electrons
N(Total)           :      268.999910129786 electrons
E(X)               :     -234.274450330583 Eh       
E(C)               :      -11.648563121813 Eh       
E(XC)              :     -245.923013452396 Eh       
DFET-embed. en.    :        0.000000000000 Eh       

---------------
SCF CONVERGENCE
---------------

  Last Energy change         ...    3.0168e-07  Tolerance :   1.0000e-06
  Last MAX-Density change    ...    0.0000e+00  Tolerance :   1.0000e-05
  Last RMS-Density change    ...    0.0000e+00  Tolerance :   1.0000e-06
  Last DIIS Error            ...    1.6192e-05  Tolerance :   1.0000e-06

             **** THE GBW FILE WAS UPDATED (picolinate_water_mgcl2_freq.gbw) ****
             **** DENSITY picolinate_water_mgcl2_freq.scfp WAS UPDATED ****
             **** ENERGY FILE WAS UPDATED (picolinate_water_mgcl2_freq.en.tmp) ****
----------------------
UHF SPIN CONTAMINATION
----------------------

Warning: in a DFT calculation there is little theoretical justification to 
         calculate <S**2> as in Hartree-Fock theory. We will do it anyways
         but you should keep in mind that the values have only limited relevance

Expectation value of <S**2>     :     3.770937
Ideal value S*(S+1) for S=1.5   :     3.750000
Deviation                       :     0.020937

             **** THE GBW FILE WAS UPDATED (picolinate_water_mgcl2_freq.gbw) ****
             **** DENSITY picolinate_water_mgcl2_freq.scfp WAS UPDATED ****
----------------
ORBITAL ENERGIES
----------------
                 SPIN UP ORBITALS
  NO   OCC          E(Eh)            E(eV) 
   0   1.0000    -215.812577     -5872.5588 
   1   1.0000    -101.474596     -2761.2641 
   2   1.0000    -101.467896     -2761.0818 
   3   1.0000     -46.843226     -1274.6690 
   4   1.0000     -24.833743      -675.7605 
   5   1.0000     -21.123432      -574.7978 
   6   1.0000     -21.122894      -574.7832 
   7   1.0000     -21.122493      -574.7723 
   8   1.0000     -19.200026      -522.4593 
   9   1.0000     -19.192768      -522.2618 
  10   1.0000     -19.165014      -521.5065 
  11   1.0000     -19.156042      -521.2624 
  12   1.0000     -19.145168      -520.9665 
  13   1.0000     -19.142479      -520.8933 
  14   1.0000     -19.132284      -520.6159 
  15   1.0000     -14.423462      -392.4824 
  16   1.0000     -14.416646      -392.2969 
  17   1.0000     -14.413878      -392.2216 
  18   1.0000     -10.371317      -282.2179 
  19   1.0000     -10.323632      -280.9203 
  20   1.0000     -10.314526      -280.6725 
  21   1.0000     -10.290515      -280.0192 
  22   1.0000     -10.282913      -279.8123 
  23   1.0000     -10.277629      -279.6685 
  24   1.0000     -10.276194      -279.6295 
  25   1.0000     -10.271868      -279.5117 
  26   1.0000     -10.271325      -279.4969 
  27   1.0000     -10.259562      -279.1769 
  28   1.0000     -10.255596      -279.0689 
  29   1.0000     -10.253141      -279.0022 
  30   1.0000     -10.250319      -278.9254 
  31   1.0000     -10.249630      -278.9066 
  32   1.0000     -10.244663      -278.7714 
  33   1.0000     -10.242876      -278.7228 
  34   1.0000     -10.242438      -278.7109 
  35   1.0000     -10.236085      -278.5380 
  36   1.0000      -9.405336      -255.9322 
  37   1.0000      -9.398857      -255.7559 
  38   1.0000      -7.163689      -194.9339 
  39   1.0000      -7.161378      -194.8710 
  40   1.0000      -7.161344      -194.8701 
  41   1.0000      -7.157190      -194.7570 
  42   1.0000      -7.154999      -194.6974 
  43   1.0000      -7.154711      -194.6896 
  44   1.0000      -3.130944       -85.1973 
  45   1.0000      -3.016082       -82.0718 
  46   1.0000      -1.963983       -53.4427 
  47   1.0000      -1.962868       -53.4124 
  48   1.0000      -1.962320       -53.3974 
  49   1.0000      -1.877426       -51.0874 
  50   1.0000      -1.874947       -51.0199 
  51   1.0000      -1.873688       -50.9856 
  52   1.0000      -1.139480       -31.0068 
  53   1.0000      -1.090856       -29.6837 
  54   1.0000      -1.080950       -29.4142 
  55   1.0000      -1.051249       -28.6059 
  56   1.0000      -1.023644       -27.8548 
  57   1.0000      -1.017720       -27.6936 
  58   1.0000      -1.012952       -27.5638 
  59   1.0000      -1.005169       -27.3520 
  60   1.0000      -1.001945       -27.2643 
  61   1.0000      -0.993726       -27.0407 
  62   1.0000      -0.866830       -23.5876 
  63   1.0000      -0.860838       -23.4246 
  64   1.0000      -0.856306       -23.3013 
  65   1.0000      -0.838368       -22.8132 
  66   1.0000      -0.825623       -22.4664 
  67   1.0000      -0.822310       -22.3762 
  68   1.0000      -0.761713       -20.7273 
  69   1.0000      -0.754599       -20.5337 
  70   1.0000      -0.716440       -19.4953 
  71   1.0000      -0.700465       -19.0606 
  72   1.0000      -0.696433       -18.9509 
  73   1.0000      -0.695008       -18.9121 
  74   1.0000      -0.686409       -18.6781 
  75   1.0000      -0.683429       -18.5970 
  76   1.0000      -0.632956       -17.2236 
  77   1.0000      -0.610820       -16.6213 
  78   1.0000      -0.605569       -16.4784 
  79   1.0000      -0.592093       -16.1117 
  80   1.0000      -0.561072       -15.2675 
  81   1.0000      -0.553919       -15.0729 
  82   1.0000      -0.549963       -14.9653 
  83   1.0000      -0.543573       -14.7914 
  84   1.0000      -0.540948       -14.7200 
  85   1.0000      -0.539875       -14.6907 
  86   1.0000      -0.528876       -14.3915 
  87   1.0000      -0.520883       -14.1739 
  88   1.0000      -0.515978       -14.0405 
  89   1.0000      -0.514759       -14.0073 
  90   1.0000      -0.509065       -13.8524 
  91   1.0000      -0.504418       -13.7259 
  92   1.0000      -0.496604       -13.5133 
  93   1.0000      -0.491048       -13.3621 
  94   1.0000      -0.484571       -13.1858 
  95   1.0000      -0.479653       -13.0520 
  96   1.0000      -0.474613       -12.9149 
  97   1.0000      -0.470747       -12.8097 
  98   1.0000      -0.465898       -12.6777 
  99   1.0000      -0.458844       -12.4858 
 100   1.0000      -0.451306       -12.2807 
 101   1.0000      -0.442835       -12.0502 
 102   1.0000      -0.438790       -11.9401 
 103   1.0000      -0.433962       -11.8087 
 104   1.0000      -0.429404       -11.6847 
 105   1.0000      -0.424388       -11.5482 
 106   1.0000      -0.421429       -11.4677 
 107   1.0000      -0.394842       -10.7442 
 108   1.0000      -0.389077       -10.5873 
 109   1.0000      -0.383669       -10.4402 
 110   1.0000      -0.375926       -10.2295 
 111   1.0000      -0.373885       -10.1739 
 112   1.0000      -0.367129        -9.9901 
 113   1.0000      -0.362460        -9.8630 
 114   1.0000      -0.358114        -9.7448 
 115   1.0000      -0.349286        -9.5045 
 116   1.0000      -0.347202        -9.4478 
 117   1.0000      -0.342479        -9.3193 
 118   1.0000      -0.337242        -9.1768 
 119   1.0000      -0.334035        -9.0895 
 120   1.0000      -0.331248        -9.0137 
 121   1.0000      -0.325771        -8.8647 
 122   1.0000      -0.317465        -8.6387 
 123   1.0000      -0.313682        -8.5357 
 124   1.0000      -0.312954        -8.5159 
 125   1.0000      -0.307829        -8.3765 
 126   1.0000      -0.307156        -8.3582 
 127   1.0000      -0.295835        -8.0501 
 128   1.0000      -0.293448        -7.9851 
 129   1.0000      -0.292190        -7.9509 
 130   1.0000      -0.286280        -7.7901 
 131   1.0000      -0.285961        -7.7814 
 132   1.0000      -0.283612        -7.7175 
 133   1.0000      -0.282284        -7.6813 
 134   1.0000      -0.275040        -7.4842 
 135   1.0000      -0.272268        -7.4088 
 136   0.0000      -0.114267        -3.1094 
 137   0.0000      -0.099475        -2.7068 
 138   0.0000      -0.092030        -2.5043 
 139   0.0000      -0.083071        -2.2605 
 140   0.0000      -0.077513        -2.1092 
 141   0.0000      -0.072223        -1.9653 
 142   0.0000      -0.069110        -1.8806 
 143   0.0000      -0.062489        -1.7004 
 144   0.0000      -0.031630        -0.8607 
 145   0.0000      -0.020789        -0.5657 
 146   0.0000      -0.016911        -0.4602 
 147   0.0000      -0.014823        -0.4033 
 148   0.0000      -0.007303        -0.1987 
 149   0.0000       0.002011         0.0547 
 150   0.0000       0.003713         0.1010 
 151   0.0000       0.007036         0.1915 
 152   0.0000       0.009853         0.2681 
 153   0.0000       0.014615         0.3977 
 154   0.0000       0.020369         0.5543 
 155   0.0000       0.023609         0.6424 
 156   0.0000       0.023954         0.6518 
 157   0.0000       0.026722         0.7271 
 158   0.0000       0.032425         0.8823 
 159   0.0000       0.033344         0.9073 
 160   0.0000       0.035555         0.9675 
 161   0.0000       0.037174         1.0115 
 162   0.0000       0.038286         1.0418 
 163   0.0000       0.042184         1.1479 
 164   0.0000       0.046907         1.2764 
 165   0.0000       0.049542         1.3481 
 166   0.0000       0.053204         1.4477 
 167   0.0000       0.055673         1.5149 
 168   0.0000       0.056994         1.5509 
 169   0.0000       0.059513         1.6194 
 170   0.0000       0.061542         1.6747 
 171   0.0000       0.068614         1.8671 
 172   0.0000       0.071737         1.9521 
 173   0.0000       0.074664         2.0317 
 174   0.0000       0.075640         2.0583 
 175   0.0000       0.077360         2.1051 
 176   0.0000       0.081895         2.2285 
 177   0.0000       0.083631         2.2757 
 178   0.0000       0.088719         2.4142 
 179   0.0000       0.090348         2.4585 
 180   0.0000       0.092596         2.5197 
 181   0.0000       0.093629         2.5478 
 182   0.0000       0.096151         2.6164 
 183   0.0000       0.098708         2.6860 
 184   0.0000       0.100188         2.7263 
 185   0.0000       0.103414         2.8140 
 186   0.0000       0.104581         2.8458 
 187   0.0000       0.105732         2.8771 
 188   0.0000       0.109036         2.9670 
 189   0.0000       0.110280         3.0009 
 190   0.0000       0.111557         3.0356 
 191   0.0000       0.112875         3.0715 
 192   0.0000       0.113562         3.0902 
 193   0.0000       0.114690         3.1209 
 194   0.0000       0.116699         3.1755 
 195   0.0000       0.120155         3.2696 
 196   0.0000       0.121337         3.3017 
 197   0.0000       0.124910         3.3990 
 198   0.0000       0.127919         3.4809 
 199   0.0000       0.128172         3.4877 
 200   0.0000       0.129698         3.5293 
 201   0.0000       0.131063         3.5664 
 202   0.0000       0.134613         3.6630 
 203   0.0000       0.136000         3.7008 
 204   0.0000       0.138148         3.7592 
 205   0.0000       0.139322         3.7912 
 206   0.0000       0.142698         3.8830 
 207   0.0000       0.144246         3.9251 
 208   0.0000       0.147186         4.0051 
 209   0.0000       0.148254         4.0342 
 210   0.0000       0.151470         4.1217 
 211   0.0000       0.152537         4.1507 
 212   0.0000       0.155734         4.2377 
 213   0.0000       0.157508         4.2860 
 214   0.0000       0.161299         4.3892 
 215   0.0000       0.163121         4.4387 
 216   0.0000       0.163498         4.4490 
 217   0.0000       0.165351         4.4994 
 218   0.0000       0.169395         4.6095 
 219   0.0000       0.169668         4.6169 
 220   0.0000       0.173629         4.7247 
 221   0.0000       0.175968         4.7883 
 222   0.0000       0.177361         4.8262 
 223   0.0000       0.180131         4.9016 
 224   0.0000       0.181876         4.9491 
 225   0.0000       0.185076         5.0362 
 226   0.0000       0.185962         5.0603 
 227   0.0000       0.186719         5.0809 
 228   0.0000       0.190504         5.1839 
 229   0.0000       0.195044         5.3074 
 230   0.0000       0.195740         5.3264 
 231   0.0000       0.198866         5.4114 
 232   0.0000       0.199831         5.4377 
 233   0.0000       0.204166         5.5556 
 234   0.0000       0.205065         5.5801 
 235   0.0000       0.207222         5.6388 
 236   0.0000       0.208910         5.6847 
 237   0.0000       0.209885         5.7113 
 238   0.0000       0.212586         5.7848 
 239   0.0000       0.214060         5.8249 
 240   0.0000       0.214666         5.8413 
 241   0.0000       0.218019         5.9326 
 242   0.0000       0.223294         6.0761 
 243   0.0000       0.226133         6.1534 
 244   0.0000       0.227095         6.1796 
 245   0.0000       0.230847         6.2817 
 246   0.0000       0.232822         6.3354 
 247   0.0000       0.235918         6.4197 
 248   0.0000       0.238130         6.4798 
 249   0.0000       0.239789         6.5250 
 250   0.0000       0.244437         6.6515 
 251   0.0000       0.245781         6.6880 
 252   0.0000       0.247855         6.7445 
 253   0.0000       0.250315         6.8114 
 254   0.0000       0.253235         6.8909 
 255   0.0000       0.254987         6.9385 
 256   0.0000       0.256206         6.9717 
 257   0.0000       0.260205         7.0805 
 258   0.0000       0.260511         7.0889 
 259   0.0000       0.263042         7.1577 
 260   0.0000       0.264800         7.2056 
 261   0.0000       0.266562         7.2535 
 262   0.0000       0.268421         7.3041 
 263   0.0000       0.270852         7.3703 
 264   0.0000       0.271350         7.3838 
 265   0.0000       0.276637         7.5277 
 266   0.0000       0.280604         7.6356 
 267   0.0000       0.280785         7.6405 
 268   0.0000       0.284609         7.7446 
 269   0.0000       0.286633         7.7997 
 270   0.0000       0.288170         7.8415 
 271   0.0000       0.294844         8.0231 
 272   0.0000       0.297847         8.1048 
 273   0.0000       0.298991         8.1360 
 274   0.0000       0.299946         8.1619 
 275   0.0000       0.302922         8.2429 
 276   0.0000       0.304996         8.2994 
 277   0.0000       0.307541         8.3686 
 278   0.0000       0.312810         8.5120 
 279   0.0000       0.313985         8.5440 
 280   0.0000       0.320019         8.7082 
 281   0.0000       0.322042         8.7632 
 282   0.0000       0.324766         8.8373 
 283   0.0000       0.328116         8.9285 
 284   0.0000       0.332392         9.0448 
 285   0.0000       0.336468         9.1558 
 286   0.0000       0.337230         9.1765 
 287   0.0000       0.338430         9.2091 
 288   0.0000       0.340106         9.2548 
 289   0.0000       0.342016         9.3067 
 290   0.0000       0.343031         9.3343 
 291   0.0000       0.345441         9.3999 
 292   0.0000       0.346709         9.4344 
 293   0.0000       0.349488         9.5100 
 294   0.0000       0.354729         9.6527 
 295   0.0000       0.355878         9.6839 
 296   0.0000       0.360712         9.8155 
 297   0.0000       0.361844         9.8463 
 298   0.0000       0.363117         9.8809 
 299   0.0000       0.368608        10.0303 
 300   0.0000       0.374521        10.1912 
 301   0.0000       0.375529        10.2187 
 302   0.0000       0.377246        10.2654 
 303   0.0000       0.381224        10.3736 
 304   0.0000       0.384931        10.4745 
 305   0.0000       0.390287        10.6202 
 306   0.0000       0.391500        10.6533 
 307   0.0000       0.395142        10.7524 
 308   0.0000       0.398216        10.8360 
 309   0.0000       0.406132        11.0514 
 310   0.0000       0.411141        11.1877 
 311   0.0000       0.411495        11.1974 
 312   0.0000       0.412274        11.2185 
 313   0.0000       0.415840        11.3156 
 314   0.0000       0.419168        11.4061 
 315   0.0000       0.426947        11.6178 
 316   0.0000       0.430030        11.7017 
 317   0.0000       0.433764        11.8033 
 318   0.0000       0.438989        11.9455 
 319   0.0000       0.442298        12.0355 
 320   0.0000       0.449991        12.2449 
 321   0.0000       0.453827        12.3493 
 322   0.0000       0.455075        12.3832 
 323   0.0000       0.459051        12.4914 
 324   0.0000       0.462843        12.5946 
 325   0.0000       0.468967        12.7613 
 326   0.0000       0.471868        12.8402 
 327   0.0000       0.476757        12.9732 
 328   0.0000       0.479896        13.0586 
 329   0.0000       0.489136        13.3101 
 330   0.0000       0.491299        13.3689 
 331   0.0000       0.496839        13.5197 
 332   0.0000       0.498690        13.5700 
 333   0.0000       0.505010        13.7420 
 334   0.0000       0.507934        13.8216 
 335   0.0000       0.512540        13.9469 
 336   0.0000       0.519795        14.1443 
 337   0.0000       0.528723        14.3873 
 338   0.0000       0.532183        14.4814 
 339   0.0000       0.534365        14.5408 
 340   0.0000       0.539396        14.6777 
 341   0.0000       0.548554        14.9269 
 342   0.0000       0.554507        15.0889 
 343   0.0000       0.561523        15.2798 
 344   0.0000       0.566241        15.4082 
 345   0.0000       0.570956        15.5365 
 346   0.0000       0.577562        15.7162 
 347   0.0000       0.586393        15.9566 
 348   0.0000       0.591969        16.1083 
 349   0.0000       0.601861        16.3775 
 350   0.0000       0.603616        16.4252 
 351   0.0000       0.615595        16.7512 
 352   0.0000       0.626159        17.0386 
 353   0.0000       0.640184        17.4203 
 354   0.0000       0.650616        17.7042 
 355   0.0000       0.674401        18.3514 
 356   0.0000       0.675075        18.3697 
 357   0.0000       0.679925        18.5017 
 358   0.0000       0.683216        18.5912 
 359   0.0000       0.686166        18.6715 
 360   0.0000       0.688397        18.7322 
 361   0.0000       0.694583        18.9006 
 362   0.0000       0.699837        19.0435 
 363   0.0000       0.703833        19.1523 
 364   0.0000       0.711103        19.3501 
 365   0.0000       0.716665        19.5014 
 366   0.0000       0.721654        19.6372 
 367   0.0000       0.723208        19.6795 
 368   0.0000       0.727627        19.7997 
 369   0.0000       0.732064        19.9205 
 370   0.0000       0.735007        20.0005 
 371   0.0000       0.737701        20.0739 
 372   0.0000       0.740983        20.1632 
 373   0.0000       0.744114        20.2484 
 374   0.0000       0.746751        20.3201 
 375   0.0000       0.755875        20.5684 
 376   0.0000       0.760599        20.6969 
 377   0.0000       0.770286        20.9606 
 378   0.0000       0.772332        21.0162 
 379   0.0000       0.773283        21.0421 
 380   0.0000       0.779951        21.2235 
 381   0.0000       0.789376        21.4800 
 382   0.0000       0.792007        21.5516 
 383   0.0000       0.800468        21.7818 
 384   0.0000       0.804229        21.8842 
 385   0.0000       0.814713        22.1695 
 386   0.0000       0.818191        22.2641 
 387   0.0000       0.828249        22.5378 
 388   0.0000       0.837202        22.7814 
 389   0.0000       0.840366        22.8675 
 390   0.0000       0.848878        23.0992 
 391   0.0000       0.856688        23.3117 
 392   0.0000       0.858287        23.3552 
 393   0.0000       0.880575        23.9617 
 394   0.0000       0.890500        24.2317 
 395   0.0000       0.897408        24.4197 
 396   0.0000       0.904666        24.6172 
 397   0.0000       0.910109        24.7653 
 398   0.0000       0.911970        24.8160 
 399   0.0000       0.917969        24.9792 
 400   0.0000       0.920022        25.0351 
 401   0.0000       0.923804        25.1380 
 402   0.0000       0.927710        25.2443 
 403   0.0000       0.934370        25.4255 
 404   0.0000       0.936778        25.4910 
 405   0.0000       0.940541        25.5934 
 406   0.0000       0.945929        25.7400 
 407   0.0000       0.951257        25.8850 
 408   0.0000       0.957502        26.0550 
 409   0.0000       0.960768        26.1438 
 410   0.0000       0.965839        26.2818 
 411   0.0000       0.970047        26.3963 
 412   0.0000       0.972185        26.4545 
 413   0.0000       0.974793        26.5255 
 414   0.0000       0.980110        26.6702 
 415   0.0000       0.984456        26.7884 
 416   0.0000       0.987669        26.8758 
 417   0.0000       1.003365        27.3029 
 418   0.0000       1.013467        27.5778 
 419   0.0000       1.029697        28.0195 
 420   0.0000       1.034837        28.1593 
 421   0.0000       1.047631        28.5075 
 422   0.0000       1.053140        28.6574 
 423   0.0000       1.058612        28.8063 
 424   0.0000       1.070907        29.1409 
 425   0.0000       1.083438        29.4819 
 426   0.0000       1.087402        29.5897 
 427   0.0000       1.095285        29.8042 
 428   0.0000       1.103716        30.0336 
 429   0.0000       1.109234        30.1838 
 430   0.0000       1.116116        30.3711 
 431   0.0000       1.121246        30.5107 
 432   0.0000       1.128414        30.7057 
 433   0.0000       1.133763        30.8512 
 434   0.0000       1.140574        31.0366 
 435   0.0000       1.145385        31.1675 
 436   0.0000       1.150736        31.3131 
 437   0.0000       1.163640        31.6642 
 438   0.0000       1.167286        31.7635 
 439   0.0000       1.182901        32.1884 
 440   0.0000       1.185396        32.2563 
 441   0.0000       1.192892        32.4602 
 442   0.0000       1.198360        32.6090 
 443   0.0000       1.204424        32.7740 
 444   0.0000       1.208021        32.8719 
 445   0.0000       1.211856        32.9763 
 446   0.0000       1.224249        33.3135 
 447   0.0000       1.227245        33.3950 
 448   0.0000       1.232960        33.5505 
 449   0.0000       1.249316        33.9956 
 450   0.0000       1.250703        34.0334 
 451   0.0000       1.259550        34.2741 
 452   0.0000       1.266565        34.4650 
 453   0.0000       1.272058        34.6145 
 454   0.0000       1.272547        34.6278 
 455   0.0000       1.281696        34.8767 
 456   0.0000       1.284297        34.9475 
 457   0.0000       1.288472        35.0611 
 458   0.0000       1.297863        35.3166 
 459   0.0000       1.302404        35.4402 
 460   0.0000       1.305253        35.5177 
 461   0.0000       1.308823        35.6149 
 462   0.0000       1.312869        35.7250 
 463   0.0000       1.315900        35.8075 
 464   0.0000       1.321672        35.9645 
 465   0.0000       1.327047        36.1108 
 466   0.0000       1.329929        36.1892 
 467   0.0000       1.334206        36.3056 
 468   0.0000       1.338779        36.4300 
 469   0.0000       1.341768        36.5114 
 470   0.0000       1.350700        36.7544 
 471   0.0000       1.353027        36.8177 
 472   0.0000       1.357608        36.9424 
 473   0.0000       1.358499        36.9666 
 474   0.0000       1.361787        37.0561 
 475   0.0000       1.362444        37.0740 
 476   0.0000       1.370424        37.2911 
 477   0.0000       1.374145        37.3924 
 478   0.0000       1.377084        37.4723 
 479   0.0000       1.380842        37.5746 
 480   0.0000       1.386831        37.7376 
 481   0.0000       1.391800        37.8728 
 482   0.0000       1.397989        38.0412 
 483   0.0000       1.401340        38.1324 
 484   0.0000       1.406112        38.2622 
 485   0.0000       1.412834        38.4452 
 486   0.0000       1.417373        38.5687 
 487   0.0000       1.424338        38.7582 
 488   0.0000       1.426711        38.8228 
 489   0.0000       1.431716        38.9590 
 490   0.0000       1.439294        39.1652 
 491   0.0000       1.442065        39.2406 
 492   0.0000       1.448722        39.4217 
 493   0.0000       1.463876        39.8341 
 494   0.0000       1.467081        39.9213 
 495   0.0000       1.472261        40.0623 
 496   0.0000       1.479653        40.2634 
 497   0.0000       1.483962        40.3807 
 498   0.0000       1.493813        40.6487 
 499   0.0000       1.497762        40.7562 
 500   0.0000       1.506946        41.0061 
 501   0.0000       1.531712        41.6800 
 502   0.0000       1.536797        41.8184 
 503   0.0000       1.542831        41.9826 
 504   0.0000       1.552069        42.2339 
 505   0.0000       1.575865        42.8815 
 506   0.0000       1.579930        42.9921 
 507   0.0000       1.592828        43.3431 
 508   0.0000       1.598471        43.4966 
 509   0.0000       1.614573        43.9348 
 510   0.0000       1.623871        44.1878 
 511   0.0000       1.633248        44.4429 
 512   0.0000       1.648298        44.8525 
 513   0.0000       1.670425        45.4546 
 514   0.0000       1.679449        45.7001 
 515   0.0000       1.687434        45.9174 
 516   0.0000       1.694964        46.1223 
 517   0.0000       1.705499        46.4090 
 518   0.0000       1.715004        46.6676 
 519   0.0000       1.735832        47.2344 
 520   0.0000       1.744298        47.4648 
 521   0.0000       1.746420        47.5225 
 522   0.0000       1.755399        47.7668 
 523   0.0000       1.762051        47.9478 
 524   0.0000       1.769412        48.1481 
 525   0.0000       1.776313        48.3359 
 526   0.0000       1.777069        48.3565 
 527   0.0000       1.799011        48.9536 
 528   0.0000       1.806337        49.1529 
 529   0.0000       1.811090        49.2823 
 530   0.0000       1.817555        49.4582 
 531   0.0000       1.821906        49.5766 
 532   0.0000       1.832836        49.8740 
 533   0.0000       1.844145        50.1817 
 534   0.0000       1.848559        50.3018 
 535   0.0000       1.858257        50.5657 
 536   0.0000       1.864200        50.7275 
 537   0.0000       1.878742        51.1232 
 538   0.0000       1.887463        51.3605 
 539   0.0000       1.893085        51.5135 
 540   0.0000       1.902418        51.7674 
 541   0.0000       1.903805        51.8052 
 542   0.0000       1.910202        51.9792 
 543   0.0000       1.912863        52.0516 
 544   0.0000       1.922076        52.3024 
 545   0.0000       1.925805        52.4038 
 546   0.0000       1.929891        52.5150 
 547   0.0000       1.937061        52.7101 
 548   0.0000       1.941429        52.8290 
 549   0.0000       1.952384        53.1271 
 550   0.0000       1.957740        53.2728 
 551   0.0000       1.959132        53.3107 
 552   0.0000       1.963639        53.4333 
 553   0.0000       1.968248        53.5588 
 554   0.0000       1.968746        53.5723 
 555   0.0000       1.980860        53.9019 
 556   0.0000       1.987331        54.0780 
 557   0.0000       1.989712        54.1428 
 558   0.0000       1.994240        54.2660 
 559   0.0000       2.003460        54.5169 
 560   0.0000       2.014836        54.8265 
 561   0.0000       2.020658        54.9849 
 562   0.0000       2.039592        55.5001 
 563   0.0000       2.040565        55.5266 
 564   0.0000       2.045862        55.6707 
 565   0.0000       2.051401        55.8215 
 566   0.0000       2.068481        56.2862 
 567   0.0000       2.070397        56.3384 
 568   0.0000       2.076101        56.4936 
 569   0.0000       2.081994        56.6539 
 570   0.0000       2.082765        56.6749 
 571   0.0000       2.107244        57.3410 
 572   0.0000       2.118076        57.6358 
 573   0.0000       2.137245        58.1574 
 574   0.0000       2.144429        58.3529 
 575   0.0000       2.149465        58.4899 
 576   0.0000       2.164842        58.9083 
 577   0.0000       2.167294        58.9751 
 578   0.0000       2.171613        59.0926 
 579   0.0000       2.182544        59.3900 
 580   0.0000       2.199450        59.8501 
 581   0.0000       2.202807        59.9414 
 582   0.0000       2.209110        60.1129 
 583   0.0000       2.218485        60.3680 
 584   0.0000       2.237552        60.8869 
 585   0.0000       2.254118        61.3377 
 586   0.0000       2.257960        61.4422 
 587   0.0000       2.265664        61.6519 
 588   0.0000       2.269227        61.7488 
 589   0.0000       2.272585        61.8402 
 590   0.0000       2.281919        62.0942 
 591   0.0000       2.284307        62.1592 
 592   0.0000       2.286033        62.2061 
 593   0.0000       2.297925        62.5297 
 594   0.0000       2.308518        62.8180 
 595   0.0000       2.317804        63.0707 
 596   0.0000       2.338246        63.6269 
 597   0.0000       2.342824        63.7515 
 598   0.0000       2.347534        63.8797 
 599   0.0000       2.351618        63.9908 
 600   0.0000       2.353170        64.0330 
 601   0.0000       2.356409        64.1211 
 602   0.0000       2.362295        64.2813 
 603   0.0000       2.365551        64.3699 
 604   0.0000       2.378822        64.7310 
 605   0.0000       2.390379        65.0455 
 606   0.0000       2.396046        65.1997 
 607   0.0000       2.408924        65.5501 
 608   0.0000       2.417787        65.7913 
 609   0.0000       2.423841        65.9561 
 610   0.0000       2.439988        66.3954 
 611   0.0000       2.457415        66.8697 
 612   0.0000       2.465166        67.0806 
 613   0.0000       2.483532        67.5803 
 614   0.0000       2.495477        67.9054 
 615   0.0000       2.499497        68.0148 
 616   0.0000       2.506279        68.1993 
 617   0.0000       2.513076        68.3843 
 618   0.0000       2.515341        68.4459 
 619   0.0000       2.521559        68.6151 
 620   0.0000       2.523377        68.6646 
 621   0.0000       2.538278        69.0701 
 622   0.0000       2.548261        69.3417 
 623   0.0000       2.550202        69.3945 
 624   0.0000       2.557579        69.5953 
 625   0.0000       2.561484        69.7015 
 626   0.0000       2.571278        69.9680 
 627   0.0000       2.579306        70.1865 
 628   0.0000       2.584778        70.3354 
 629   0.0000       2.590707        70.4967 
 630   0.0000       2.597110        70.6709 
 631   0.0000       2.605218        70.8916 
 632   0.0000       2.616662        71.2030 
 633   0.0000       2.627731        71.5042 
 634   0.0000       2.648394        72.0665 
 635   0.0000       2.655442        72.2582 
 636   0.0000       2.670313        72.6629 
 637   0.0000       2.683919        73.0332 
 638   0.0000       2.691626        73.2429 
 639   0.0000       2.695359        73.3445 
 640   0.0000       2.698381        73.4267 
 641   0.0000       2.705302        73.6150 
 642   0.0000       2.716024        73.9068 
 643   0.0000       2.726953        74.2042 
 644   0.0000       2.736667        74.4685 
 645   0.0000       2.741653        74.6042 
 646   0.0000       2.746123        74.7258 
 647   0.0000       2.753470        74.9257 
 648   0.0000       2.766212        75.2725 
 649   0.0000       2.780266        75.6549 
 650   0.0000       2.790184        75.9248 
 651   0.0000       2.815981        76.6267 
 652   0.0000       2.839019        77.2536 
 653   0.0000       2.840355        77.2900 
 654   0.0000       2.850288        77.5603 
 655   0.0000       2.857800        77.7647 
 656   0.0000       2.868102        78.0450 
 657   0.0000       2.879165        78.3461 
 658   0.0000       2.935741        79.8856 
 659   0.0000       2.971201        80.8505 
 660   0.0000       2.977422        81.0198 
 661   0.0000       2.993232        81.4500 
 662   0.0000       3.014325        82.0239 
 663   0.0000       3.030051        82.4519 
 664   0.0000       3.036391        82.6244 
 665   0.0000       3.056126        83.1614 
 666   0.0000       3.075901        83.6995 
 667   0.0000       3.084274        83.9274 
 668   0.0000       3.091926        84.1356 
 669   0.0000       3.097146        84.2776 
 670   0.0000       3.110899        84.6519 
 671   0.0000       3.148286        85.6692 
 672   0.0000       3.161040        86.0163 
 673   0.0000       3.177987        86.4774 
 674   0.0000       3.192516        86.8728 
 675   0.0000       3.208724        87.3138 
 676   0.0000       3.237359        88.0930 
 677   0.0000       3.251681        88.4827 
 678   0.0000       3.264138        88.8217 
 679   0.0000       3.274115        89.0932 
 680   0.0000       3.278986        89.2257 
 681   0.0000       3.283684        89.3536 
 682   0.0000       3.286584        89.4325 
 683   0.0000       3.297738        89.7360 
 684   0.0000       3.310079        90.0718 
 685   0.0000       3.324766        90.4715 
 686   0.0000       3.332724        90.6880 
 687   0.0000       3.340702        90.9051 
[...]
 28:    182.21   0.001230    6.22  0.002107  ( 0.028274  0.003638 -0.035972)
 29:    185.10   0.000176    0.89  0.000297  ( 0.002083  0.011951  0.012250)
 30:    190.56   0.000935    4.72  0.001531  (-0.008233  0.000202 -0.038246)
 31:    204.78   0.000430    2.17  0.000656  ( 0.000992  0.015671  0.020230)
 32:    213.68   0.010129   51.19  0.014793  (-0.042677  0.000883  0.113890)
 33:    228.68   0.002979   15.05  0.004065  ( 0.030422 -0.007247 -0.055560)
 34:    258.54   0.005053   25.54  0.006099  ( 0.055856 -0.054084 -0.007382)
 35:    267.79   0.001169    5.91  0.001362  ( 0.010213 -0.033979 -0.010152)
 36:    281.90   0.001746    8.82  0.001933  (-0.016359 -0.038376  0.013868)
 37:    303.55   0.000366    1.85  0.000377  ( 0.003379 -0.018343 -0.005362)
 38:    358.87   0.002482   12.54  0.002158  ( 0.026635 -0.037453  0.006776)
 39:    369.53   0.006728   34.00  0.005682  (-0.041244 -0.026237 -0.057379)
 40:    385.19   0.006711   33.91  0.005437  (-0.040757 -0.051411  0.033654)
 41:    389.32   0.011211   56.66  0.008986  ( 0.021084 -0.087284 -0.030383)
 42:    405.17   0.011594   58.59  0.008930  (-0.006968  0.036244 -0.086993)
 43:    409.08   0.002287   11.56  0.001745  (-0.016492  0.014162 -0.035666)
 44:    419.01   0.001517    7.66  0.001130  ( 0.001439  0.000816 -0.033568)
 45:    420.79   0.000794    4.01  0.000589  (-0.022742  0.001668  0.008292)
 46:    445.92   0.000374    1.89  0.000262  (-0.005241  0.014525  0.004853)
 47:    446.67   0.001310    6.62  0.000915  (-0.014095  0.026750  0.001047)
 48:    450.70   0.000475    2.40  0.000329  (-0.010523 -0.004630  0.014019)
 49:    470.03   0.010883   55.00  0.007226  (-0.015309 -0.059637  0.058608)
 50:    476.32   0.019259   97.33  0.012617  (-0.005064  0.045310  0.102658)
 51:    478.58   0.017476   88.32  0.011396  ( 0.060316 -0.047622  0.074092)
 52:    487.77   0.048882  247.03  0.031273  (-0.058767 -0.149026 -0.074905)
 53:    525.86   0.025576  129.25  0.015178  (-0.107145  0.057197  0.020641)
 54:    540.91   0.000016    0.08  0.000009  ( 0.000915  0.002567 -0.001368)
 55:    544.37   0.000075    0.38  0.000043  ( 0.002678 -0.005776 -0.001561)
 56:    569.74   0.008614   43.53  0.004718  (-0.013611  0.016100 -0.065372)
 57:    667.41   0.001321    6.68  0.000618  ( 0.022769 -0.009560 -0.002816)
 58:    667.85   0.001673    8.45  0.000782  (-0.015601 -0.020548  0.010768)
 59:    672.85   0.004965   25.09  0.002303  ( 0.016836 -0.044834  0.003043)
 60:    678.57   0.007206   36.42  0.003314  ( 0.025689  0.007299  0.050999)
 61:    688.80   0.007087   35.81  0.003211  ( 0.046359 -0.032281 -0.004411)
 62:    700.38   0.006847   34.60  0.003051  (-0.032509 -0.043307  0.010886)
 63:    722.61   0.003980   20.11  0.001719  (-0.013950  0.029821 -0.025198)
 64:    727.51   0.005001   25.27  0.002145  (-0.041124 -0.019437  0.008724)
 65:    730.78   0.004955   25.04  0.002116  (-0.014932  0.015293  0.040733)
 66:    757.04   0.005144   26.00  0.002120  ( 0.018172  0.008762  0.041393)
 67:    764.42   0.006225   31.46  0.002541  (-0.048874 -0.000176  0.012355)
 68:    767.23   0.005693   28.77  0.002315  (-0.001786  0.045612 -0.015227)
 69:    812.75   0.000404    2.04  0.000155  (-0.008031 -0.000538 -0.009498)
 70:    821.89   0.001008    5.09  0.000383  ( 0.004280 -0.018529  0.004582)
 71:    825.53   0.000269    1.36  0.000102  ( 0.007797 -0.004849 -0.004157)
 72:    861.07   0.006383   32.26  0.002313  ( 0.036962  0.015467  0.026603)
 73:    865.08   0.013508   68.27  0.004873  ( 0.043155  0.010998 -0.053755)
 74:    896.04   0.003526   17.82  0.001228  (-0.003894  0.030056  0.017595)
 75:    909.78   0.000333    1.68  0.000114  (-0.003451 -0.002073 -0.009902)
 76:    930.50   0.000084    0.42  0.000028  (-0.003547 -0.001261 -0.003745)
 77:    937.48   0.000312    1.58  0.000104  (-0.000856  0.002415 -0.009864)
 78:    975.12   0.000007    0.03  0.000002  (-0.000693 -0.000097 -0.001275)
 79:   1003.97   0.000245    1.24  0.000076  ( 0.001994  0.003870 -0.007565)
 80:   1015.20   0.000491    2.48  0.000151  (-0.002311  0.009793  0.007052)
 81:   1016.90   0.000043    0.22  0.000013  (-0.001972  0.000204 -0.003027)
 82:   1031.33   0.000212    1.07  0.000064  ( 0.000078 -0.005168  0.006127)
 83:   1032.51   0.000863    4.36  0.000261  (-0.003810 -0.010294 -0.011850)
 84:   1058.51   0.003657   18.48  0.001078  (-0.029450 -0.013858  0.004325)
 85:   1061.24   0.006328   31.98  0.001861  ( 0.021373 -0.036400  0.008893)
 86:   1063.09   0.002240   11.32  0.000658  (-0.006016  0.024797 -0.002543)
 87:   1082.62   0.004751   24.01  0.001369  ( 0.009921 -0.035562  0.002526)
 88:   1085.51   0.001836    9.28  0.000528  ( 0.021882 -0.006946  0.000833)
 89:   1086.82   0.003698   18.69  0.001062  (-0.026326 -0.018729  0.004249)
 90:   1127.55   0.002121   10.72  0.000587  ( 0.012701  0.017909 -0.010240)
 91:   1128.74   0.002254   11.39  0.000623  (-0.010127  0.022810 -0.000561)
 92:   1138.84   0.002546   12.87  0.000698  (-0.014545  0.021981 -0.001739)
 93:   1179.79   0.000374    1.89  0.000099  ( 0.009114 -0.002377 -0.003203)
 94:   1180.87   0.000483    2.44  0.000128  ( 0.000294  0.000586 -0.011282)
 95:   1189.41   0.000687    3.47  0.000180  (-0.005917 -0.006371 -0.010230)
 96:   1197.57   0.017370   87.78  0.004526  ( 0.029512  0.060413 -0.002376)
 97:   1199.69   0.004467   22.57  0.001162  (-0.022730  0.012015 -0.022382)
 98:   1228.51   0.001293    6.53  0.000328  ( 0.009394 -0.013805 -0.007047)
 99:   1315.51   0.003978   20.10  0.000944  (-0.001076  0.030240 -0.005290)
100:   1321.77   0.024446  123.54  0.005772  (-0.057188 -0.046907  0.017346)
101:   1330.11   0.008034   40.60  0.001885  (-0.014117  0.039419 -0.011478)
102:   1331.87   0.064848  327.72  0.015194  (-0.005686  0.121704 -0.018711)
103:   1346.41   0.035052  177.14  0.008124  (-0.085872  0.015846  0.022341)
104:   1374.81   0.006202   31.34  0.001408  (-0.023124  0.027281  0.011350)
105:   1377.08   0.015146   76.54  0.003432  ( 0.011893  0.057182 -0.004580)
106:   1379.22   0.005886   29.75  0.001332  (-0.033074  0.012830 -0.008560)
107:   1471.14   0.040050  202.39  0.008495  ( 0.043122 -0.072002 -0.038102)
108:   1490.71   0.002106   10.64  0.000441  ( 0.012038 -0.000639  0.017190)
109:   1491.78   0.003505   17.71  0.000733  (-0.018455 -0.019661 -0.002444)
110:   1495.96   0.009716   49.10  0.002027  (-0.018276  0.036404  0.019171)
111:   1523.95   0.002687   13.58  0.000550  ( 0.011266  0.016191 -0.012692)
112:   1532.39   0.002931   14.81  0.000597  (-0.000940  0.019982  0.014027)
113:   1533.86   0.008152   41.20  0.001659  (-0.027185  0.027504 -0.012770)
114:   1624.39   0.004998   25.26  0.000960  (-0.019515  0.014770  0.019007)
115:   1642.48   0.001319    6.67  0.000251  (-0.008517 -0.006834 -0.011464)
116:   1643.91   0.001046    5.29  0.000199  (-0.008637 -0.008509  0.007181)
117:   1647.21   0.001376    6.96  0.000261  (-0.009293  0.006678 -0.011392)
118:   1674.23   0.016640   84.09  0.003102  (-0.030282  0.024169 -0.040005)
119:   1679.42   0.007579   38.30  0.001408  (-0.027434 -0.025448 -0.002850)
120:   1682.68   0.008952   45.24  0.001660  (-0.002868  0.039482 -0.009651)
121:   1745.06   0.222878  1126.34  0.039857  ( 0.071024 -0.064738  0.174989)
122:   1817.74   0.138071  697.76  0.023704  (-0.093446 -0.107543 -0.058362)
123:   1831.97   0.077710  392.71  0.013237  (-0.047085 -0.067104  0.080730)
124:   3215.90   0.017570   88.79  0.001705  (-0.016712 -0.021573 -0.030988)
125:   3232.91   0.012663   63.99  0.001222  (-0.010085  0.008096 -0.032482)
126:   3242.23   0.000670    3.39  0.000065  (-0.006321 -0.003804  0.003175)
127:   3243.33   0.001000    5.05  0.000096  ( 0.001548 -0.009612  0.001188)
128:   3250.05   0.000469    2.37  0.000045  (-0.002463  0.002606  0.005671)
129:   3257.73   0.000693    3.50  0.000066  (-0.003828  0.002791 -0.006628)
130:   3260.64   0.000095    0.48  0.000009  (-0.000295 -0.002813  0.001032)
131:   3264.58   0.000355    1.79  0.000034  ( 0.004174  0.003560  0.001959)
132:   3269.64   0.000637    3.22  0.000061  ( 0.004903 -0.005661 -0.002169)
133:   3272.00   0.000265    1.34  0.000025  (-0.001281 -0.000531  0.004833)
134:   3272.43   0.000062    0.31  0.000006  (-0.000291 -0.002395  0.000247)
135:   3274.89   0.001161    5.87  0.000111  ( 0.009381 -0.002898 -0.003779)
136:   3759.06   0.042485  214.70  0.003527  ( 0.022939 -0.036800  0.040577)
137:   3891.31   0.033405  168.82  0.002679  (-0.018617 -0.006934  0.047794)

* The epsilon (eps) is given for a Dirac delta lineshape.
** The dipole moment derivative (T) already includes vibrational overlap.

The first frequency considered to be a vibration is 12
The total number of vibrations considered is 126


--------------------------
THERMOCHEMISTRY AT 298.15K
--------------------------

Temperature         ... 298.15 K
Pressure            ... 1.00 atm
Total Mass          ... 531.53 AMU

Throughout the following assumptions are being made:
  (1) The electronic state is orbitally nondegenerate
      but the spin degeneracy is treated
  (2) There are no thermally accessible electronically excited states
  (3) Hindered rotations indicated by low frequency modes are not
      treated as such but are treated as vibrations and this may
      cause some error
  (4) All equations used are the standard statistical mechanics
      equations for an ideal gas
  (5) All vibrations are strictly harmonic

freq.       8.21  E(vib)   ...       0.58 
freq.      17.98  E(vib)   ...       0.57 
freq.      29.10  E(vib)   ...       0.55 
freq.      69.14  E(vib)   ...       0.50 
freq.      72.15  E(vib)   ...       0.50 
freq.      84.23  E(vib)   ...       0.48 
freq.      88.24  E(vib)   ...       0.48 
freq.     100.47  E(vib)   ...       0.46 
freq.     104.85  E(vib)   ...       0.46 
freq.     116.22  E(vib)   ...       0.44 
freq.     134.60  E(vib)   ...       0.42 
freq.     143.86  E(vib)   ...       0.41 
freq.     153.92  E(vib)   ...       0.40 
freq.     158.08  E(vib)   ...       0.39 
freq.     162.01  E(vib)   ...       0.39 
freq.     171.88  E(vib)   ...       0.38 
freq.     182.21  E(vib)   ...       0.37 
freq.     185.10  E(vib)   ...       0.37 
freq.     190.56  E(vib)   ...       0.36 
freq.     204.78  E(vib)   ...       0.35 
freq.     213.68  E(vib)   ...       0.34 
freq.     228.68  E(vib)   ...       0.32 
freq.     258.54  E(vib)   ...       0.30 
freq.     267.79  E(vib)   ...       0.29 
freq.     281.90  E(vib)   ...       0.28 
freq.     303.55  E(vib)   ...       0.26 
freq.     358.87  E(vib)   ...       0.22 
freq.     369.53  E(vib)   ...       0.21 
freq.     385.19  E(vib)   ...       0.20 
freq.     389.32  E(vib)   ...       0.20 
freq.     405.17  E(vib)   ...       0.19 
freq.     409.08  E(vib)   ...       0.19 
freq.     419.01  E(vib)   ...       0.18 
freq.     420.79  E(vib)   ...       0.18 
freq.     445.92  E(vib)   ...       0.17 
freq.     446.67  E(vib)   ...       0.17 
freq.     450.70  E(vib)   ...       0.17 
freq.     470.03  E(vib)   ...       0.16 
freq.     476.32  E(vib)   ...       0.15 
freq.     478.58  E(vib)   ...       0.15 
freq.     487.77  E(vib)   ...       0.15 
freq.     525.86  E(vib)   ...       0.13 
freq.     540.91  E(vib)   ...       0.12 
freq.     544.37  E(vib)   ...       0.12 
freq.     569.74  E(vib)   ...       0.11 
freq.     667.41  E(vib)   ...       0.08 
freq.     667.85  E(vib)   ...       0.08 
freq.     672.85  E(vib)   ...       0.08 
freq.     678.57  E(vib)   ...       0.08 
freq.     688.80  E(vib)   ...       0.07 
freq.     700.38  E(vib)   ...       0.07 
freq.     722.61  E(vib)   ...       0.07 
freq.     727.51  E(vib)   ...       0.06 
freq.     730.78  E(vib)   ...       0.06 
freq.     757.04  E(vib)   ...       0.06 
freq.     764.42  E(vib)   ...       0.06 
freq.     767.23  E(vib)   ...       0.06 
freq.     812.75  E(vib)   ...       0.05 
freq.     821.89  E(vib)   ...       0.05 
freq.     825.53  E(vib)   ...       0.04 
freq.     861.07  E(vib)   ...       0.04 
freq.     865.08  E(vib)   ...       0.04 
freq.     896.04  E(vib)   ...       0.03 
freq.     909.78  E(vib)   ...       0.03 
freq.     930.50  E(vib)   ...       0.03 
freq.     937.48  E(vib)   ...       0.03 
freq.     975.12  E(vib)   ...       0.03 
freq.    1003.97  E(vib)   ...       0.02 
freq.    1015.20  E(vib)   ...       0.02 
freq.    1016.90  E(vib)   ...       0.02 
freq.    1031.33  E(vib)   ...       0.02 
freq.    1032.51  E(vib)   ...       0.02 
freq.    1058.51  E(vib)   ...       0.02 
freq.    1061.24  E(vib)   ...       0.02 
freq.    1063.09  E(vib)   ...       0.02 
freq.    1082.62  E(vib)   ...       0.02 
freq.    1085.51  E(vib)   ...       0.02 
freq.    1086.82  E(vib)   ...       0.02 
freq.    1127.55  E(vib)   ...       0.01 
freq.    1128.74  E(vib)   ...       0.01 
freq.    1138.84  E(vib)   ...       0.01 
freq.    1179.79  E(vib)   ...       0.01 
freq.    1180.87  E(vib)   ...       0.01 
freq.    1189.41  E(vib)   ...       0.01 
freq.    1197.57  E(vib)   ...       0.01 
freq.    1199.69  E(vib)   ...       0.01 
freq.    1228.51  E(vib)   ...       0.01 
freq.    1315.51  E(vib)   ...       0.01 
freq.    1321.77  E(vib)   ...       0.01 
freq.    1330.11  E(vib)   ...       0.01 
freq.    1331.87  E(vib)   ...       0.01 
freq.    1346.41  E(vib)   ...       0.01 
freq.    1374.81  E(vib)   ...       0.01 
freq.    1377.08  E(vib)   ...       0.01 
freq.    1379.22  E(vib)   ...       0.01 
freq.    1471.14  E(vib)   ...       0.00 
freq.    1490.71  E(vib)   ...       0.00 
freq.    1491.78  E(vib)   ...       0.00 
freq.    1495.96  E(vib)   ...       0.00 
freq.    1523.95  E(vib)   ...       0.00 
freq.    1532.39  E(vib)   ...       0.00 
freq.    1533.86  E(vib)   ...       0.00 
freq.    1624.39  E(vib)   ...       0.00 
freq.    1642.48  E(vib)   ...       0.00 
freq.    1643.91  E(vib)   ...       0.00 
freq.    1647.21  E(vib)   ...       0.00 
freq.    1674.23  E(vib)   ...       0.00 
freq.    1679.42  E(vib)   ...       0.00 
freq.    1682.68  E(vib)   ...       0.00 
freq.    1745.06  E(vib)   ...       0.00 
freq.    1817.74  E(vib)   ...       0.00 
freq.    1831.97  E(vib)   ...       0.00 
freq.    3215.90  E(vib)   ...       0.00 
freq.    3232.91  E(vib)   ...       0.00 
freq.    3242.23  E(vib)   ...       0.00 
freq.    3243.33  E(vib)   ...       0.00 
freq.    3250.05  E(vib)   ...       0.00 
freq.    3257.73  E(vib)   ...       0.00 
freq.    3260.64  E(vib)   ...       0.00 
freq.    3264.58  E(vib)   ...       0.00 
freq.    3269.64  E(vib)   ...       0.00 
freq.    3272.00  E(vib)   ...       0.00 
freq.    3272.43  E(vib)   ...       0.00 
freq.    3274.89  E(vib)   ...       0.00 
freq.    3759.06  E(vib)   ...       0.00 
freq.    3891.31  E(vib)   ...       0.00 

------------
INNER ENERGY
------------

The inner energy is: U= E(el) + E(ZPE) + E(vib) + E(rot) + E(trans)
    E(el)   - is the total energy from the electronic structure calculation
              = E(kin-el) + E(nuc-el) + E(el-el) + E(nuc-nuc)
    E(ZPE)  - the the zero temperature vibrational energy from the frequency calculation
    E(vib)  - the the finite temperature correction to E(ZPE) due to population
              of excited vibrational states
    E(rot)  - is the rotational thermal energy
    E(trans)- is the translational thermal energy

Summary of contributions to the inner energy U:
Electronic energy                ...  -3549.68620614 Eh
Zero point energy                ...      0.31217103 Eh     195.89 kcal/mol
Thermal vibrational correction   ...      0.02453394 Eh      15.40 kcal/mol
Thermal rotational correction    ...      0.00141627 Eh       0.89 kcal/mol
Thermal translational correction ...      0.00141627 Eh       0.89 kcal/mol
-----------------------------------------------------------------------
Total thermal energy                  -3549.34666863 Eh


Summary of corrections to the electronic energy:
(perhaps to be used in another calculation)
Total thermal correction                  0.02736648 Eh      17.17 kcal/mol
Non-thermal (ZPE) correction              0.31217103 Eh     195.89 kcal/mol
-----------------------------------------------------------------------
Total correction                          0.33953751 Eh     213.06 kcal/mol


--------
ENTHALPY
--------

The enthalpy is H = U + kB*T
                kB is Boltzmann's constant
Total free energy                 ...  -3549.34666863 Eh 
Thermal Enthalpy correction       ...      0.00094421 Eh       0.59 kcal/mol
-----------------------------------------------------------------------
Total Enthalpy                    ...  -3549.34572442 Eh


Note: Only C1 symmetry has been detected, increase convergence thresholds 
      if your molecule has a higher symmetry. Symmetry factor of 1.0 is   
      used for the rotational entropy correction. 
 

Note: Rotational entropy computed according to Herzberg 
Infrared and Raman Spectra, Chapter V,1, Van Nostrand Reinhold, 1945 
Point Group:  C1, Symmetry Number:   1  
Rotational constants in cm-1:     0.004781     0.002819     0.002681 

Vibrational entropy computed according to the QRRHO of S. Grimme
Chem.Eur.J. 2012 18 9955


-------
ENTROPY
-------

The entropy contributions are T*S = T*(S(el)+S(vib)+S(rot)+S(trans))
     S(el)   - electronic entropy
     S(vib)  - vibrational entropy
     S(rot)  - rotational entropy
     S(trans)- translational entropy
The entropies will be listed as multiplied by the temperature to get
units of energy

Electronic entropy                ...      0.00130891 Eh      0.82 kcal/mol
Vibrational entropy               ...      0.04428263 Eh     27.79 kcal/mol
Rotational entropy                ...      0.01760058 Eh     11.04 kcal/mol
Translational entropy             ...      0.02123726 Eh     13.33 kcal/mol
-----------------------------------------------------------------------
Final entropy term                ...      0.08442939 Eh     52.98 kcal/mol

In case the symmetry of your molecule has not been determined correctly
or in case you have a reason to use a different symmetry number we print 
out the resulting rotational entropy values for sn=1,12 :
 --------------------------------------------------------
|  sn= 1 | S(rot)=       0.01760058 Eh     11.04 kcal/mol|
|  sn= 2 | S(rot)=       0.01694613 Eh     10.63 kcal/mol|
|  sn= 3 | S(rot)=       0.01656330 Eh     10.39 kcal/mol|
|  sn= 4 | S(rot)=       0.01629167 Eh     10.22 kcal/mol|
|  sn= 5 | S(rot)=       0.01608098 Eh     10.09 kcal/mol|
|  sn= 6 | S(rot)=       0.01590884 Eh      9.98 kcal/mol|
|  sn= 7 | S(rot)=       0.01576329 Eh      9.89 kcal/mol|
|  sn= 8 | S(rot)=       0.01563722 Eh      9.81 kcal/mol|
|  sn= 9 | S(rot)=       0.01552601 Eh      9.74 kcal/mol|
|  sn=10 | S(rot)=       0.01542653 Eh      9.68 kcal/mol|
|  sn=11 | S(rot)=       0.01533654 Eh      9.62 kcal/mol|
|  sn=12 | S(rot)=       0.01525438 Eh      9.57 kcal/mol|
 --------------------------------------------------------


-------------------
GIBBS FREE ENERGY
-------------------

The Gibbs free energy is G = H - T*S

Total enthalpy                    ...  -3549.34572442 Eh 
Total entropy correction          ...     -0.08442939 Eh    -52.98 kcal/mol
-----------------------------------------------------------------------
Final Gibbs free energy         ...  -3549.43015381 Eh

For completeness - the Gibbs free energy minus the electronic energy
G-E(el)                           ...      0.25605233 Eh    160.67 kcal/mol


Timings for individual modules:

Sum of individual times         ...     3893.031 sec (=  64.884 min)
GTO integral calculation        ...        1.308 sec (=   0.022 min)   0.0 %
SCF iterations                  ...      210.337 sec (=   3.506 min)   5.4 %
Analytical frequency calculation...     3681.386 sec (=  61.356 min)  94.6 %
                             ****ORCA TERMINATED NORMALLY****
TOTAL RUN TIME: 0 days 1 hours 4 minutes 53 seconds 742 msec
