
                                 *****************
                                 * O   R   C   A *
                                 *****************

                                            #,                                       
                                            ###                                      
                                            ####                                     
                                            #####                                    
                                            ######                                   
                                           ########,                                 
                                     ,,################,,,,,                         
                               ,,#################################,,                 
                          ,,##########################################,,             
                       ,#########################################, ''#####,          
                    ,#############################################,,   '####,        
                  ,##################################################,,,,####,       
                ,###########''''           ''''###############################       
              ,#####''   ,,,,##########,,,,          '''####'''          '####       
            ,##' ,,,,###########################,,,                        '##       
           ' ,,###''''                  '''############,,,                           
         ,,##''                                '''############,,,,        ,,,,,,###''
      ,#''                                            '''#######################'''  
     '                                                          ''''####''''         
             ,#######,   #######,   ,#######,      ##                                
            ,#'     '#,  ##    ##  ,#'     '#,    #''#        ######   ,####,        
            ##       ##  ##   ,#'  ##            #'  '#       #        #'  '#        
            ##       ##  #######   ##           ,######,      #####,   #    #        
            '#,     ,#'  ##    ##  '#,     ,#' ,#      #,         ##   #,  ,#        
             '#######'   ##     ##  '#######'  #'      '#     #####' # '####'        



                  #######################################################
                  #                        -***-                        #
                  #          Department of theory and spectroscopy      #
                  #    Directorship and core code : Frank Neese         #
                  #        Max Planck Institute fuer Kohlenforschung    #
                  #                Kaiser Wilhelm Platz 1               #
                  #                 D-45470 Muelheim/Ruhr               #
                  #                      Germany                        #
                  #                                                     #
                  #                  All rights reserved                #
                  #                        -***-                        #
                  #######################################################


                         Program Version 5.0.4 -  RELEASE  -


 With contributions from (in alphabetic order):
   Daniel Aravena         : Magnetic Suceptibility
   Michael Atanasov       : Ab Initio Ligand Field Theory (pilot matlab implementation)
   Alexander A. Auer      : GIAO ZORA, VPT2 properties, NMR spectrum
   Ute Becker             : Parallelization
   Giovanni Bistoni       : ED, misc. LED, open-shell LED, HFLD
   Martin Brehm           : Molecular dynamics
   Dmytro Bykov           : SCF Hessian
   Vijay G. Chilkuri      : MRCI spin determinant printing, contributions to CSF-ICE
   Dipayan Datta          : RHF DLPNO-CCSD density
   Achintya Kumar Dutta   : EOM-CC, STEOM-CC
   Dmitry Ganyushin       : Spin-Orbit,Spin-Spin,Magnetic field MRCI
   Miquel Garcia          : C-PCM and meta-GGA Hessian, CC/C-PCM, Gaussian charge scheme
   Yang Guo               : DLPNO-NEVPT2, F12-NEVPT2, CIM, IAO-localization
   Andreas Hansen         : Spin unrestricted coupled pair/coupled cluster methods
   Benjamin Helmich-Paris : MC-RPA, TRAH-SCF, COSX integrals
   Lee Huntington         : MR-EOM, pCC
   Robert Izsak           : Overlap fitted RIJCOSX, COSX-SCS-MP3, EOM
   Marcus Kettner         : VPT2
   Christian Kollmar      : KDIIS, OOCD, Brueckner-CCSD(T), CCSD density, CASPT2, CASPT2-K
   Simone Kossmann        : Meta GGA functionals, TD-DFT gradient, OOMP2, MP2 Hessian
   Martin Krupicka        : Initial AUTO-CI
   Lucas Lang             : DCDCAS
   Marvin Lechner         : AUTO-CI (C++ implementation), FIC-MRCC
   Dagmar Lenk            : GEPOL surface, SMD
   Dimitrios Liakos       : Extrapolation schemes; Compound Job, initial MDCI parallelization
   Dimitrios Manganas     : Further ROCIS development; embedding schemes
   Dimitrios Pantazis     : SARC Basis sets
   Anastasios Papadopoulos: AUTO-CI, single reference methods and gradients
   Taras Petrenko         : DFT Hessian,TD-DFT gradient, ASA, ECA, R-Raman, ABS, FL, XAS/XES, NRVS
   Peter Pinski           : DLPNO-MP2, DLPNO-MP2 Gradient
   Christoph Reimann      : Effective Core Potentials
   Marius Retegan         : Local ZFS, SOC
   Christoph Riplinger    : Optimizer, TS searches, QM/MM, DLPNO-CCSD(T), (RO)-DLPNO pert. Triples
   Tobias Risthaus        : Range-separated hybrids, TD-DFT gradient, RPA, STAB
   Michael Roemelt        : Original ROCIS implementation
   Masaaki Saitow         : Open-shell DLPNO-CCSD energy and density
   Barbara Sandhoefer     : DKH picture change effects
   Avijit Sen             : IP-ROCIS
   Kantharuban Sivalingam : CASSCF convergence, NEVPT2, FIC-MRCI
   Bernardo de Souza      : ESD, SOC TD-DFT
   Georgi Stoychev        : AutoAux, RI-MP2 NMR, DLPNO-MP2 response
   Willem Van den Heuvel  : Paramagnetic NMR
   Boris Wezisla          : Elementary symmetry handling
   Frank Wennmohs         : Technical directorship


 We gratefully acknowledge several colleagues who have allowed us to
 interface, adapt or use parts of their codes:
   Stefan Grimme, W. Hujo, H. Kruse, P. Pracht,  : VdW corrections, initial TS optimization,
                  C. Bannwarth, S. Ehlert          DFT functionals, gCP, sTDA/sTD-DF
   Ed Valeev, F. Pavosevic, A. Kumar             : LibInt (2-el integral package), F12 methods
   Garnet Chan, S. Sharma, J. Yang, R. Olivares  : DMRG
   Ulf Ekstrom                                   : XCFun DFT Library
   Mihaly Kallay                                 : mrcc  (arbitrary order and MRCC methods)
   Jiri Pittner, Ondrej Demel                    : Mk-CCSD
   Frank Weinhold                                : gennbo (NPA and NBO analysis)
   Christopher J. Cramer and Donald G. Truhlar   : smd solvation model
   Lars Goerigk                                  : TD-DFT with DH, B97 family of functionals
   V. Asgeirsson, H. Jonsson                     : NEB implementation
   FAccTs GmbH                                   : IRC, NEB, NEB-TS, DLPNO-Multilevel, CI-OPT
                                                   MM, QMMM, 2- and 3-layer-ONIOM, Crystal-QMMM,
                                                   LR-CPCM, SF, NACMEs, symmetry and pop. for TD-DFT,
                                                   nearIR, NL-DFT gradient (VV10), updates on ESD,
                                                   ML-optimized integration grids
   S Lehtola, MJT Oliveira, MAL Marques          : LibXC Library
   Liviu Ungur et al                             : ANISO software


 Your calculation uses the libint2 library for the computation of 2-el integrals
 For citations please refer to: http://libint.valeyev.net

 Your ORCA version has been built with support for libXC version: 5.1.0
 For citations please refer to: https://tddft.org/programs/libxc/

 This ORCA versions uses:
   CBLAS   interface :  Fast vector & matrix operations
   LAPACKE interface :  Fast linear algebra routines
   SCALAPACK package :  Parallel linear algebra routines
   Shared memory     :  Shared parallel matrices
   BLAS/LAPACK       :  OpenBLAS 0.3.15  USE64BITINT DYNAMIC_ARCH NO_AFFINITY Zen SINGLE_THREADED
        Core in use  :  Zen
   Copyright (c) 2011-2014, The OpenBLAS Project


Your calculation utilizes the atom-pairwise dispersion correction
with the Becke-Johnson damping scheme (D3BJ)
Cite in your paper:
S.Grimme, S.Ehrlich, L.Goerigk, J Comput Chem, (2011), 32, 1456–1465 
S.Grimme, J.Antony, S.Ehrlich and H.Krieg, J.Chem.Phys., 132, (2010), 154104 
   

================================================================================

----- Orbital basis set information -----
Your calculation utilizes the basis: 6-31++G(d,p)
   H-He, Li-Ne : W. J. Hehre, R. Ditchfield and J.A. Pople, J. Chem. Phys. 56, 2257 (1972).
                 Note: He and Ne are unpublished basis sets taken from the Gaussian program.
                 Note: Li and B from J. D. Dill and J. A. Pople, J. Chem. Phys. 62, 2921 (1975).
   Na - Ar     : M. M. Francl, W. J. Pietro, W. J. Hehre, J. S. Binkley, M. S. Gordon, 
                 D. J. DeFrees and J. A. Pople, J. Chem. Phys. 77, 3654 (1982).
   K - Zn      : V. A. Rassolov, J. A. Pople, M. A. Ratner, and T. L. Windus, J. Chem. Phys. 109, 1223 (1998).
   Additional Pol./Diff. from the 6-311G equivalent.

----- AuxJ basis set information -----
Your calculation utilizes the auxiliary basis: def2/J
   F. Weigend, Phys. Chem. Chem. Phys. 8, 1057 (2006).

================================================================================
                                        WARNINGS
                       Please study these warnings very carefully!
================================================================================


WARNING: your system is open-shell and RHF/RKS was chosen
  ===> : WILL SWITCH to UHF/UKS


INFO   : the flag for use of the SHARK integral package has been found!

================================================================================
                                       INPUT FILE
================================================================================
NAME = picolinate_kcl_freq.inp
|  1> # avogadro generated ORCA file
|  2> # C18H12N3O6ClKCr | Geometry Optimization | B3LYP/6-31G(d)
|  3> # 
|  4> ! B3LYP D3BJ 6-31++G(d,p) FREQ
|  5> 
|  6> %maxcore 1024
|  7> 
|  8> %pal
|  9>    nprocs 16
| 10> end
| 11> 
| 12> * xyz 0 4
| 13>    Cr     5.060787    0.050197   -0.288589
| 14>    O      4.338178   -0.242079   -2.067364
| 15>    O      5.745085   -0.018928    1.579322
| 16>    O      6.568099    1.075779   -0.919635
| 17>    O      2.740163   -1.276469   -3.258602
| 18>    O      6.972638   -1.158647    3.051159
| 19>    O      7.296187    3.145580   -1.400526
| 20>    N      3.282561   -0.933244    0.206517
| 21>    N      6.166117   -1.717091   -0.340249
| 22>    N      4.282361    1.944290   -0.012323
| 23>    C      2.586110   -1.284847   -0.890468
| 24>    C      6.767546   -1.997930    0.826672
| 25>    C      5.135435    2.886375   -0.457279
| 26>    C      3.236927   -0.924157   -2.208840
| 27>    C      6.501988   -1.006624    1.929156
| 28>    C      6.457335    2.371170   -0.991083
| 29>    C      2.780625   -1.176145    1.421763
| 30>    C      6.355042   -2.507872   -1.397117
| 31>    C      3.127069    2.302860    0.555979
| 32>    C      1.361022   -1.918710   -0.803788
| 33>    C      7.574141   -3.109915    0.985422
| 34>    C      4.831869    4.232545   -0.382495
| 35>    C      1.547050   -1.790101    1.582371
| 36>    C      7.154037   -3.639693   -1.314166
| 37>    C      2.765931    3.636361    0.675313
| 38>    C      0.832032   -2.174059    0.456716
| 39>    C      7.767998   -3.946619   -0.106752
| 40>    C      3.622192    4.612703    0.187278
| 41>    H      3.339039   -0.817363    2.272607
| 42>    H      5.858855   -2.210095   -2.310063
| 43>    H      2.503571    1.520913    0.957168
| 44>    H      0.852077   -2.182283   -1.718987
| 45>    H      8.030664   -3.289386    1.947265
| 46>    H      5.552221    4.942097   -0.761541
| 47>    H      1.160758   -1.931720    2.580611
| 48>    H      7.289502   -4.261931   -2.186476
| 49>    H      1.836284    3.886477    1.163703
| 50>    H     -0.131855   -2.654574    0.557535
| 51>    H      8.394414   -4.823671   -0.018559
| 52>    H      3.358572    5.659059    0.262983
| 53>    K      5.548114    1.074103    4.023787
| 54>    Cl     2.724920    1.214388    3.743447
| 55> *
| 56> 
| 57> 
| 58> 
| 59>                          ****END OF INPUT****
================================================================================

                       ****************************
                       * Single Point Calculation *
                       ****************************

---------------------------------
CARTESIAN COORDINATES (ANGSTROEM)
---------------------------------
  Cr     5.060787    0.050197   -0.288589
  O      4.338178   -0.242079   -2.067364
  O      5.745085   -0.018928    1.579322
  O      6.568099    1.075779   -0.919635
  O      2.740163   -1.276469   -3.258602
  O      6.972638   -1.158647    3.051159
  O      7.296187    3.145580   -1.400526
  N      3.282561   -0.933244    0.206517
  N      6.166117   -1.717091   -0.340249
  N      4.282361    1.944290   -0.012323
  C      2.586110   -1.284847   -0.890468
  C      6.767546   -1.997930    0.826672
  C      5.135435    2.886375   -0.457279
  C      3.236927   -0.924157   -2.208840
  C      6.501988   -1.006624    1.929156
  C      6.457335    2.371170   -0.991083
  C      2.780625   -1.176145    1.421763
  C      6.355042   -2.507872   -1.397117
  C      3.127069    2.302860    0.555979
  C      1.361022   -1.918710   -0.803788
  C      7.574141   -3.109915    0.985422
  C      4.831869    4.232545   -0.382495
  C      1.547050   -1.790101    1.582371
  C      7.154037   -3.639693   -1.314166
  C      2.765931    3.636361    0.675313
  C      0.832032   -2.174059    0.456716
  C      7.767998   -3.946619   -0.106752
  C      3.622192    4.612703    0.187278
  H      3.339039   -0.817363    2.272607
  H      5.858855   -2.210095   -2.310063
  H      2.503571    1.520913    0.957168
  H      0.852077   -2.182283   -1.718987
  H      8.030664   -3.289386    1.947265
  H      5.552221    4.942097   -0.761541
  H      1.160758   -1.931720    2.580611
  H      7.289502   -4.261931   -2.186476
  H      1.836284    3.886477    1.163703
  H     -0.131855   -2.654574    0.557535
  H      8.394414   -4.823671   -0.018559
  H      3.358572    5.659059    0.262983
  K      5.548114    1.074103    4.023787
  Cl     2.724920    1.214388    3.743447

----------------------------
CARTESIAN COORDINATES (A.U.)
----------------------------
  NO LB      ZA    FRAG     MASS         X           Y           Z
   0 Cr   24.0000    0    52.000    9.563501    0.094859   -0.545354
   1 O     8.0000    0    15.999    8.197968   -0.457463   -3.906752
   2 O     8.0000    0    15.999   10.856637   -0.035769    2.984486
   3 O     8.0000    0    15.999   12.411908    2.032928   -1.737858
   4 O     8.0000    0    15.999    5.178158   -2.412177   -6.157865
   5 O     8.0000    0    15.999   13.176376   -2.189526    5.765855
   6 O     8.0000    0    15.999   13.787795    5.944285   -2.646611
   7 N     7.0000    0    14.007    6.203141   -1.763576    0.390261
   8 N     7.0000    0    14.007   11.652272   -3.244832   -0.642977
   9 N     7.0000    0    14.007    8.092489    3.674176   -0.023287
  10 C     6.0000    0    12.011    4.887040   -2.428009   -1.682741
  11 C     6.0000    0    12.011   12.788809   -3.775541    1.562184
  12 C     6.0000    0    12.011    9.704566    5.454458   -0.864132
  13 C     6.0000    0    12.011    6.116906   -1.746404   -4.174103
  14 C     6.0000    0    12.011   12.286977   -1.902244    3.645577
  15 C     6.0000    0    12.011   12.202595    4.480862   -1.872875
  16 C     6.0000    0    12.011    5.254620   -2.222592    2.686743
  17 C     6.0000    0    12.011   12.009289   -4.739191   -2.640169
  18 C     6.0000    0    12.011    5.909304    4.351775    1.050648
  19 C     6.0000    0    12.011    2.571959   -3.625836   -1.518939
  20 C     6.0000    0    12.011   14.313052   -5.876888    1.862178
  21 C     6.0000    0    12.011    9.130909    7.998351   -0.722811
  22 C     6.0000    0    12.011    2.923501   -3.382801    2.990248
  23 C     6.0000    0    12.011   13.519171   -6.878023   -2.483414
  24 C     6.0000    0    12.011    5.226852    6.871726    1.276157
  25 C     6.0000    0    12.011    1.572313   -4.108376    0.863068
  26 C     6.0000    0    12.011   14.679389   -7.458029   -0.201732
  27 C     6.0000    0    12.011    6.844951    8.716745    0.353904
  28 H     1.0000    0     1.008    6.309869   -1.544592    4.294605
  29 H     1.0000    0     1.008   11.071631   -4.176474   -4.365386
  30 H     1.0000    0     1.008    4.731064    2.874109    1.808785
  31 H     1.0000    0     1.008    1.610192   -4.123917   -3.248415
  32 H     1.0000    0     1.008   15.175756   -6.216039    3.679798
  33 H     1.0000    0     1.008   10.492177    9.339210   -1.439104
  34 H     1.0000    0     1.008    2.193515   -3.650422    4.876648
  35 H     1.0000    0     1.008   13.775162   -8.053882   -4.131841
  36 H     1.0000    0     1.008    3.470074    7.344377    2.199080
  37 H     1.0000    0     1.008   -0.249170   -5.016418    1.053588
  38 H     1.0000    0     1.008   15.863144   -9.115417   -0.035071
  39 H     1.0000    0     1.008    6.346781   10.694072    0.496966
  40 K    19.0000    0    39.100   10.484416    2.029761    7.603855
  41 Cl   17.0000    0    35.453    5.149353    2.294861    7.074090

--------------------------------
INTERNAL COORDINATES (ANGSTROEM)
--------------------------------
 Cr     0   0   0     0.000000000000     0.00000000     0.00000000
 O      1   0   0     1.942068363287     0.00000000     0.00000000
 O      1   2   0     1.990510869689   169.17107540     0.00000000
 O      1   2   3     1.929255545070    94.07820824   132.52483657
 O      2   1   4     2.245587358570   145.08302061   175.30592891
 O      3   1   4     2.229831814586   145.73242010   268.92477378
 O      4   1   2     2.246206684441   144.40211628    90.52975795
 N      1   2   5     2.091500384603    80.19494767   350.57291919
 N      1   2   5     2.085121109059    92.69346881    83.48636436
 N      1   2   5     2.066363528734    96.90580880   257.13893516
 C      8   1   2     1.346122117505   111.70249010     1.46820497
 C      9   1   2     1.342494695037   113.15703580   186.30464894
 C     10   1   2     1.346567948021   111.00566826   270.29318509
 C      5   2   1     1.213630287066    27.88908447    10.22160695
 C      6   3   1     1.226178268866    28.51842610     0.83184491
 C      7   4   1     1.212859058693    27.77122760     3.38585265
 C      8   1   2     1.337072729665   128.29752844   184.47185893
 C      9   1   2     1.333415619756   126.68363170     9.28478341
 C     10   1   2     1.336502605073   128.93282520    92.42302739
 C     11   8   1     1.382076818745   121.82259221   181.58657829
 C     12   9   1     1.382862139459   121.95851759   181.64816777
 C     13  10   1     1.381998057854   121.63083568   179.80947907
 C     17   8   1     1.387243374547   121.29482623   176.87465678
 C     18   9   1     1.387909454708   121.18597467   177.75355226
 C     19  10   1     1.386681713877   121.31318333   179.11823481
 C     23  17   8     1.387722474097   119.12466121     0.87821060
 C     24  18   9     1.388884533139   119.12078047   359.82114720
 C     25  19  10     1.387301251463   119.06251517     0.31700316
 H     17   8   1     1.079113632226   117.51399596     0.91255099
 H     18   9   1     1.080899199562   116.16933854   358.18821949
 H     19  10   1     1.077563678181   117.63199175     1.68173069
 H     20  11   8     1.079854133184   118.46115699   180.40201931
 H     21  12   9     1.079705999807   118.85220454   180.19770369
 H     22  13  10     1.079836522222   118.32876900   180.41407829
 H     23  17   8     1.079703916833   118.89681537   182.43854153
 H     24  18   9     1.080025754771   119.58817259   180.01403523
 H     25  19  10     1.079502825455   119.07958224   181.58340107
 H     26  23  17     1.081728840678   120.42564708   179.98818158
 H     27  24  18     1.081385787316   120.41098233   179.96349621
 H     28  25  19     1.081705888937   120.37992929   179.57491165
 K      3   1   4     2.684943850070   144.58747937    99.19035575
 Cl    29  17   8     2.582348655345   125.98800636   105.56514401

---------------------------
INTERNAL COORDINATES (A.U.)
---------------------------
 Cr     0   0   0     0.000000000000     0.00000000     0.00000000
 O      1   0   0     3.669977339966     0.00000000     0.00000000
 O      1   2   0     3.761520410306   169.17107540     0.00000000
 O      1   2   3     3.645764622532    94.07820824   132.52483657
 O      2   1   4     4.243545117493   145.08302061   175.30592891
 O      3   1   4     4.213771454272   145.73242010   268.92477378
 O      4   1   2     4.244715473776   144.40211628    90.52975795
 N      1   2   5     3.952362935890    80.19494767   350.57291919
 N      1   2   5     3.940307852180    92.69346881    83.48636436
 N      1   2   5     3.904861162430    96.90580880   257.13893516
 C      8   1   2     2.543802144898   111.70249010     1.46820497
 C      9   1   2     2.536947309862   113.15703580   186.30464894
 C     10   1   2     2.544644642476   111.00566826   270.29318509
 C      5   2   1     2.293428870387    27.88908447    10.22160695
 C      6   3   1     2.317141119521    28.51842610     0.83184491
 C      7   4   1     2.291971459975    27.77122760     3.38585265
 C      8   1   2     2.526701280201   128.29752844   184.47185893
 C      9   1   2     2.519790344032   126.68363170     9.28478341
 C     10   1   2     2.525623900861   128.93282520    92.42302739
 C     11   8   1     2.611746683470   121.82259221   181.58657829
 C     12   9   1     2.613230724547   121.95851759   181.64816777
 C     13  10   1     2.611597846955   121.63083568   179.80947907
 C     17   8   1     2.621510058991   121.29482623   176.87465678
 C     18   9   1     2.622768768078   121.18597467   177.75355226
 C     19  10   1     2.620448674144   121.31318333   179.11823481
 C     23  17   8     2.622415425930   119.12466121     0.87821060
 C     24  18   9     2.624611399272   119.12078047   359.82114720
 C     25  19  10     2.621619430511   119.06251517     0.31700316
 H     17   8   1     2.039229232288   117.51399596     0.91255099
 H     18   9   1     2.042603465547   116.16933854   358.18821949
 H     19  10   1     2.036300243622   117.63199175     1.68173069
 H     20  11   8     2.040628576301   118.46115699   180.40201931
 H     21  12   9     2.040348644787   118.85220454   180.19770369
 H     22  13  10     2.040595296405   118.32876900   180.41407829
 H     23  17   8     2.040344708537   118.89681537   182.43854153
 H     24  18   9     2.040952894099   119.58817259   180.01403523
 H     25  19  10     2.039964700904   119.07958224   181.58340107
 H     26  23  17     2.044171260046   120.42564708   179.98818158
 H     27  24  18     2.043522983142   120.41098233   179.96349621
 H     28  25  19     2.044127887541   120.37992929   179.57491165
 K      3   1   4     5.073808561588   144.58747937    99.19035575
 Cl    29  17   8     4.879931740902   125.98800636   105.56514401

---------------------
BASIS SET INFORMATION
---------------------
There are 7 groups of distinct atoms

 Group   1 Type Cr  : 23s18p5d1f contracted to 6s6p3d1f pattern {666311/663111/311/1}
 Group   2 Type O   : 11s5p1d contracted to 4s3p1d pattern {6311/311/1}
 Group   3 Type N   : 11s5p1d contracted to 4s3p1d pattern {6311/311/1}
 Group   4 Type C   : 11s5p1d contracted to 4s3p1d pattern {6311/311/1}
 Group   5 Type H   : 5s1p contracted to 3s1p pattern {311/1}
 Group   6 Type K   : 23s17p1d contracted to 6s5p1d pattern {666311/66311/1}
 Group   7 Type Cl  : 17s11p1d contracted to 5s4p1d pattern {66311/6311/1}

Atom   0Cr   basis set group =>   1
Atom   1O    basis set group =>   2
Atom   2O    basis set group =>   2
Atom   3O    basis set group =>   2
Atom   4O    basis set group =>   2
Atom   5O    basis set group =>   2
Atom   6O    basis set group =>   2
Atom   7N    basis set group =>   3
Atom   8N    basis set group =>   3
Atom   9N    basis set group =>   3
Atom  10C    basis set group =>   4
Atom  11C    basis set group =>   4
Atom  12C    basis set group =>   4
Atom  13C    basis set group =>   4
Atom  14C    basis set group =>   4
Atom  15C    basis set group =>   4
Atom  16C    basis set group =>   4
Atom  17C    basis set group =>   4
Atom  18C    basis set group =>   4
Atom  19C    basis set group =>   4
Atom  20C    basis set group =>   4
Atom  21C    basis set group =>   4
Atom  22C    basis set group =>   4
Atom  23C    basis set group =>   4
Atom  24C    basis set group =>   4
Atom  25C    basis set group =>   4
Atom  26C    basis set group =>   4
Atom  27C    basis set group =>   4
Atom  28H    basis set group =>   5
Atom  29H    basis set group =>   5
Atom  30H    basis set group =>   5
Atom  31H    basis set group =>   5
Atom  32H    basis set group =>   5
Atom  33H    basis set group =>   5
Atom  34H    basis set group =>   5
Atom  35H    basis set group =>   5
Atom  36H    basis set group =>   5
Atom  37H    basis set group =>   5
Atom  38H    basis set group =>   5
Atom  39H    basis set group =>   5
Atom  40K    basis set group =>   6
Atom  41Cl   basis set group =>   7
---------------------------------
AUXILIARY/J BASIS SET INFORMATION
---------------------------------
There are 7 groups of distinct atoms

 Group   1 Type Cr  : 19s5p5d3f3g contracted to 8s5p5d2f3g pattern {121111111/11111/11111/21/111}
 Group   2 Type O   : 12s5p4d2f1g contracted to 6s4p3d1f1g pattern {711111/2111/211/2/1}
 Group   3 Type N   : 12s5p4d2f1g contracted to 6s4p3d1f1g pattern {711111/2111/211/2/1}
 Group   4 Type C   : 12s5p4d2f1g contracted to 6s4p3d1f1g pattern {711111/2111/211/2/1}
 Group   5 Type H   : 5s2p1d contracted to 3s1p1d pattern {311/2/1}
 Group   6 Type K   : 19s5p5d3f1g contracted to 8s4p4d1f1g pattern {121111111/2111/2111/3/1}
 Group   7 Type Cl  : 14s5p5d2f1g contracted to 8s4p3d1f1g pattern {71111111/2111/311/2/1}

Atom   0Cr   basis set group =>   1
Atom   1O    basis set group =>   2
Atom   2O    basis set group =>   2
Atom   3O    basis set group =>   2
Atom   4O    basis set group =>   2
Atom   5O    basis set group =>   2
Atom   6O    basis set group =>   2
Atom   7N    basis set group =>   3
Atom   8N    basis set group =>   3
Atom   9N    basis set group =>   3
Atom  10C    basis set group =>   4
Atom  11C    basis set group =>   4
Atom  12C    basis set group =>   4
Atom  13C    basis set group =>   4
Atom  14C    basis set group =>   4
Atom  15C    basis set group =>   4
Atom  16C    basis set group =>   4
Atom  17C    basis set group =>   4
Atom  18C    basis set group =>   4
Atom  19C    basis set group =>   4
Atom  20C    basis set group =>   4
Atom  21C    basis set group =>   4
Atom  22C    basis set group =>   4
Atom  23C    basis set group =>   4
Atom  24C    basis set group =>   4
Atom  25C    basis set group =>   4
Atom  26C    basis set group =>   4
Atom  27C    basis set group =>   4
Atom  28H    basis set group =>   5
Atom  29H    basis set group =>   5
Atom  30H    basis set group =>   5
Atom  31H    basis set group =>   5
Atom  32H    basis set group =>   5
Atom  33H    basis set group =>   5
Atom  34H    basis set group =>   5
Atom  35H    basis set group =>   5
Atom  36H    basis set group =>   5
Atom  37H    basis set group =>   5
Atom  38H    basis set group =>   5
Atom  39H    basis set group =>   5
Atom  40K    basis set group =>   6
Atom  41Cl   basis set group =>   7


           ************************************************************
           *        Program running with 16 parallel MPI-processes    *
           *              working on a common directory               *
           ************************************************************
------------------------------------------------------------------------------
                           ORCA GTO INTEGRAL CALCULATION
                           -- RI-GTO INTEGRALS CHOSEN --
------------------------------------------------------------------------------
------------------------------------------------------------------------------
                   ___                                                        
                  /   \      - P O W E R E D   B Y -                         
                 /     \                                                     
                 |  |  |   _    _      __       _____    __    __             
                 |  |  |  | |  | |    /  \     |  _  \  |  |  /  |          
                  \  \/   | |  | |   /    \    | | | |  |  | /  /          
                 / \  \   | |__| |  /  /\  \   | |_| |  |  |/  /          
                |  |  |   |  __  | /  /__\  \  |    /   |      \           
                |  |  |   | |  | | |   __   |  |    \   |  |\   \          
                \     /   | |  | | |  |  |  |  | |\  \  |  | \   \       
                 \___/    |_|  |_| |__|  |__|  |_| \__\ |__|  \__/        
                                                                              
                      - O R C A' S   B I G   F R I E N D -                    
                                      &                                       
                       - I N T E G R A L  F E E D E R -                       
                                                                              
 v1 FN, 2020, v2 2021                                                         
------------------------------------------------------------------------------


Reading SHARK input file picolinate_kcl_freq.SHARKINP.tmp ... ok
----------------------
SHARK INTEGRAL PACKAGE
----------------------

Number of atoms                             ...     42
Number of basis functions                   ...    652
Number of shells                            ...    302
Maximum angular momentum                    ...      3
Integral batch strategy                     ... SHARK/LIBINT Hybrid
RI-J (if used) integral strategy            ... SPLIT-RIJ (Revised 2003 algorithm where possible)
Printlevel                                  ...      1
Contraction scheme used                     ... SEGMENTED contraction
Coulomb Range Separation                    ... NOT USED
Exchange Range Separation                   ... NOT USED
Finite Nucleus Model                        ... NOT USED
Auxiliary Coulomb fitting basis             ... AVAILABLE
   # of basis functions in Aux-J            ...   1651
   # of shells in Aux-J                     ...    523
   Maximum angular momentum in Aux-J        ...      4
Auxiliary J/K fitting basis                 ... NOT available
Auxiliary Correlation fitting basis         ... NOT available
Auxiliary 'external' fitting basis          ... NOT available
Integral threshold                          ...     1.000000e-10
Primitive cut-off                           ...     1.000000e-11
Primitive pair pre-selection threshold      ...     1.000000e-11

Calculating pre-screening integrals         ... done (  0.0 sec) Dimension = 302
Organizing shell pair data                  ... done (  0.2 sec)
Shell pair information
Total number of shell pairs                 ...     45753
Shell pairs after pre-screening             ...     37097
Total number of primitive shell pairs       ...    211095
Primitive shell pairs kept                  ...    102409
          la=0 lb=0:  10391 shell pairs
          la=1 lb=0:  14599 shell pairs
          la=1 lb=1:   5156 shell pairs
          la=2 lb=0:   3659 shell pairs
          la=2 lb=1:   2715 shell pairs
          la=2 lb=2:    312 shell pairs
          la=3 lb=0:    136 shell pairs
          la=3 lb=1:     97 shell pairs
          la=3 lb=2:     31 shell pairs
          la=3 lb=3:      1 shell pairs

Calculating one electron integrals          ... done (  0.0 sec)
Calculating RI/J V-Matrix + Cholesky decomp.... done (  0.1 sec)
Calculating Nuclear repulsion               ... done (  0.0 sec) ENN=   4050.811548368588 Eh

SHARK setup successfully completed in   0.6 seconds

Maximum memory used throughout the entire GTOINT-calculation: 60.3 MB


           ************************************************************
           *        Program running with 16 parallel MPI-processes    *
           *              working on a common directory               *
           ************************************************************
-------------------------------------------------------------------------------
                                 ORCA SCF
-------------------------------------------------------------------------------

------------
SCF SETTINGS
------------
Hamiltonian:
 Density Functional     Method          .... DFT(GTOs)
 Exchange Functional    Exchange        .... B88
   X-Alpha parameter    XAlpha          ....  0.666667
   Becke's b parameter  XBeta           ....  0.004200
 Correlation Functional Correlation     .... LYP
 LDA part of GGA corr.  LDAOpt          .... VWN-5
 Gradients option       PostSCFGGA      .... off
 Hybrid DFT is turned on
   Fraction HF Exchange ScalHFX         ....  0.200000
   Scaling of DF-GGA-X  ScalDFX         ....  0.720000
   Scaling of DF-GGA-C  ScalDFC         ....  0.810000
   Scaling of DF-LDA-C  ScalLDAC        ....  1.000000
   Perturbative correction              ....  0.000000
   Density functional embedding theory  .... OFF
   NL short-range parameter             ....  4.800000
 RI-approximation to the Coulomb term is turned on
   Number of AuxJ basis functions       .... 1651
   RIJ-COSX (HFX calculated with COS-X)).... on


General Settings:
 Integral files         IntName         .... picolinate_kcl_freq
 Hartree-Fock type      HFTyp           .... UHF
 Total Charge           Charge          ....    0
 Multiplicity           Mult            ....    4
 Number of Electrons    NEL             ....  249
 Basis Dimension        Dim             ....  652
 Nuclear Repulsion      ENuc            ....   4050.8115483686 Eh

Convergence Acceleration:
 DIIS                   CNVDIIS         .... on
   Start iteration      DIISMaxIt       ....    12
   Startup error        DIISStart       ....  0.200000
   # of expansion vecs  DIISMaxEq       ....     5
   Bias factor          DIISBfac        ....   1.050
   Max. coefficient     DIISMaxC        ....  10.000
 Trust-Rad. Augm. Hess. CNVTRAH         .... auto
   Auto Start mean grad. ratio tolernc. ....  1.125000
   Auto Start start iteration           ....    20
   Auto Start num. interpolation iter.  ....    10
   Max. Number of Micro iterations      ....    16
   Max. Number of Macro iterations      .... Maxiter - #DIIS iter
   Number of Davidson start vectors     ....     2
   Converg. threshold I  (grad. norm)   ....   5.000e-05
   Converg. threshold II (energy diff.) ....   1.000e-06
   Grad. Scal. Fac. for Micro threshold ....   0.100
   Minimum threshold for Micro iter.    ....   0.010
   NR start threshold (gradient norm)   ....   0.001
   Initial trust radius                 ....   0.400
   Minimum AH scaling param. (alpha)    ....   1.000
   Maximum AH scaling param. (alpha)    .... 1000.000
   Orbital update algorithm             .... Taylor
   White noise on init. David. guess    .... on
   Maximum white noise                  ....   0.010
   Quad. conv. algorithm                .... NR
 SOSCF                  CNVSOSCF        .... off
 Level Shifting         CNVShift        .... on
   Level shift para.    LevelShift      ....    0.2500
   Turn off err/grad.   ShiftErr        ....    0.0010
 Zerner damping         CNVZerner       .... off
 Static damping         CNVDamp         .... on
   Fraction old density DampFac         ....    0.7000
   Max. Damping (<1)    DampMax         ....    0.9800
   Min. Damping (>=0)   DampMin         ....    0.0000
   Turn off err/grad.   DampErr         ....    0.1000
 Fernandez-Rico         CNVRico         .... off

SCF Procedure:
 Maximum # iterations   MaxIter         ....   125
 SCF integral mode      SCFMode         .... Direct
   Integral package                     .... SHARK and LIBINT hybrid scheme
 Reset frequency        DirectResetFreq ....    20
 Integral Threshold     Thresh          ....  1.000e-10 Eh
 Primitive CutOff       TCut            ....  1.000e-11 Eh

Convergence Tolerance:
 Convergence Check Mode ConvCheckMode   .... Total+1el-Energy
 Convergence forced     ConvForced      .... 0
 Energy Change          TolE            ....  1.000e-06 Eh
 1-El. energy change                    ....  1.000e-03 Eh
 DIIS Error             TolErr          ....  1.000e-06


Diagonalization of the overlap matrix:
Smallest eigenvalue                        ... 5.479e-07
Time for diagonalization                   ...    0.047 sec
Threshold for overlap eigenvalues          ... 1.000e-08
Number of eigenvalues below threshold      ... 0
Time for construction of square roots      ...    0.057 sec
Total time needed                          ...    0.107 sec

Time for model grid setup =    0.264 sec

------------------------------
INITIAL GUESS: MODEL POTENTIAL
------------------------------
Loading Hartree-Fock densities                     ... done
Calculating cut-offs                               ... done
Initializing the effective Hamiltonian             ... done
Setting up the integral package (SHARK)            ... done
Starting the Coulomb interaction                   ... done (   0.2 sec)
Reading the grid                                   ... done
Mapping shells                                     ... done
Starting the XC term evaluation                    ... done (   0.2 sec)
  promolecular density results
     # of electrons  =    248.988934882
     EX              =   -272.824254127
     EC              =     -9.213427849
     EX+EC           =   -282.037681976
Transforming the Hamiltonian                       ... done (   0.1 sec)
Diagonalizing the Hamiltonian                      ... done (   0.0 sec)
Back transforming the eigenvectors                 ... done (   0.0 sec)
Now organizing SCF variables                       ... done
                      ------------------
                      INITIAL GUESS DONE (   0.9 sec)
                      ------------------
-------------------
DFT GRID GENERATION
-------------------

General Integration Accuracy     IntAcc      ... 4.388
Radial Grid Type                 RadialGrid  ... OptM3 with GC (2021)
Angular Grid (max. ang.)         AngularGrid ... 4 (Lebedev-302)
Angular grid pruning method      GridPruning ... 4 (adaptive)
Weight generation scheme         WeightScheme... Becke
Basis function cutoff            BFCut       ... 1.0000e-10
Integration weight cutoff        WCut        ... 1.0000e-14
Angular grids for H and He will be reduced by one unit
Partially contracted basis set               ... off
Rotationally invariant grid construction     ... off

Total number of grid points                  ...   236988
Total number of batches                      ...     3723
Average number of points per batch           ...       63
Average number of grid points per atom       ...     5643
Time for grid setup =    1.092 sec

--------------------
COSX GRID GENERATION
--------------------

GRIDX 1
-------
General Integration Accuracy     IntAcc      ... 3.816
Radial Grid Type                 RadialGrid  ... OptM3 with GC (2021)
Angular Grid (max. ang.)         AngularGrid ... 1 (Lebedev-50)
Angular grid pruning method      GridPruning ... 4 (adaptive)
Weight generation scheme         WeightScheme... Becke
Basis function cutoff            BFCut       ... 1.0000e-10
Integration weight cutoff        WCut        ... 1.0000e-14
Angular grids for H and He will be reduced by one unit
Partially contracted basis set               ... on
Rotationally invariant grid construction     ... off

Total number of grid points                  ...    29372
Total number of batches                      ...      482
Average number of points per batch           ...       60
Average number of grid points per atom       ...      699
UseSFitting                                  ... on

GRIDX 2
-------
General Integration Accuracy     IntAcc      ... 4.020
Radial Grid Type                 RadialGrid  ... OptM3 with GC (2021)
Angular Grid (max. ang.)         AngularGrid ... 2 (Lebedev-110)
Angular grid pruning method      GridPruning ... 4 (adaptive)
Weight generation scheme         WeightScheme... Becke
Basis function cutoff            BFCut       ... 1.0000e-10
Integration weight cutoff        WCut        ... 1.0000e-14
Angular grids for H and He will be reduced by one unit
Partially contracted basis set               ... on
Rotationally invariant grid construction     ... off

Total number of grid points                  ...    70961
Total number of batches                      ...     1131
Average number of points per batch           ...       62
Average number of grid points per atom       ...     1690
UseSFitting                                  ... on

GRIDX 3
-------
General Integration Accuracy     IntAcc      ... 4.338
Radial Grid Type                 RadialGrid  ... OptM3 with GC (2021)
Angular Grid (max. ang.)         AngularGrid ... 3 (Lebedev-194)
Angular grid pruning method      GridPruning ... 4 (adaptive)
Weight generation scheme         WeightScheme... Becke
Basis function cutoff            BFCut       ... 1.0000e-10
Integration weight cutoff        WCut        ... 1.0000e-14
Angular grids for H and He will be reduced by one unit
Partially contracted basis set               ... on
Rotationally invariant grid construction     ... off

Total number of grid points                  ...   155682
Total number of batches                      ...     2453
Average number of points per batch           ...       63
Average number of grid points per atom       ...     3707
UseSFitting                                  ... on

Time for X-Grid setup             =    1.377 sec

--------------
SCF ITERATIONS
--------------
ITER       Energy         Delta-E        Max-DP      RMS-DP      [F,P]     Damp
               ***  Starting incremental Fock matrix formation  ***
  0  -3411.5064826085   0.000000000000161.96289915  0.28664526  0.1996018 0.7000
  1  -3411.2970076927   0.20947491577352.84713598  0.10943515  0.1967903 0.7000
                               ***Turning on DIIS***
  2  -3411.8322762706  -0.53526857783898.95410674  0.19919922  0.0296626 0.0000
  3  -3412.4571058961  -0.62482962556165.51463923  0.12059383  0.0755153 0.0000
  4  -3412.4976225596  -0.04051666350918.55962709  0.03433254  0.1178737 0.7000
  5  -3412.5633948755  -0.06577231588751.57991830  0.09728090  0.0887889 0.0000
  6  -3412.7066876005  -0.143292724939 9.61968054  0.01602434  0.0115746 0.0000
  7  -3412.7183123605  -0.011624759997 7.80317912  0.01318788  0.0127127 0.0000
  8  -3412.7250796690  -0.006767308506 2.45381810  0.00779869  0.0034494 0.0000
  9  -3412.7267720092  -0.001692340274 2.81224052  0.01163318  0.0021105 0.0000
 10  -3412.7274426655  -0.000670656300 4.12144809  0.01019110  0.0013849 0.0000
 11  -3412.7277157397  -0.000273074194 1.65773982  0.00744524  0.0010498 0.0000
 12  -3412.7278277212  -0.000111981469 1.78212056  0.00718532  0.0004744 0.0000
               *** Restarting incremental Fock matrix formation ***
                                   *** Resetting DIIS ***
 13  -3412.7277589998   0.000068721410 5.75405903  0.01184035  0.0007551 0.0000
 14  -3412.7277241143   0.000034885536 0.56844481  0.00230769  0.0017494 0.0000
 15  -3412.7277668939  -0.000042779590 2.89018788  0.00921233  0.0004952 0.0000
 16  -3412.7277741352  -0.000007241307 2.36868055  0.00842517  0.0000702 0.0000
 17  -3412.7277751150  -0.000000979829 1.41141421  0.00521617  0.0001236 0.0000
 18  -3412.7277751889  -0.000000073958 1.27849528  0.00483946  0.0000599 0.0000
 19  -3412.7277741860   0.000001002948 0.99301720  0.00475522  0.0000662 0.0000
 20  -3412.7277729788   0.000001207226 2.82321125  0.00556607  0.0000109 0.0000
                 **** Energy Check signals convergence ****

               *****************************************************
               *                     SUCCESS                       *
               *           SCF CONVERGED AFTER  21 CYCLES          *
               *****************************************************

Old exchange energy                            =    -54.938705786 Eh
New exchange energy                            =    -54.938708003 Eh
Exchange energy change after final integration =     -0.000002217 Eh
Total energy after final integration           =  -3412.727775257 Eh
Final COS-X integration done in                =    16.111 sec

----------------
TOTAL SCF ENERGY
----------------

Total Energy       :        -3412.72777526 Eh          -92865.04393 eV

Components:
Nuclear Repulsion  :         4050.81154837 Eh          110228.18612 eV
Electronic Energy  :        -7463.53932363 Eh         -203093.23006 eV
One Electron Energy:       -12752.75340598 Eh         -347020.06234 eV
Two Electron Energy:         5289.21408236 Eh          143926.83228 eV
Max COSX asymmetry :            0.00003780 Eh               0.00103 eV

Virial components:
Potential Energy   :        -6813.79081021 Eh         -185412.67414 eV
Kinetic Energy     :         3401.06303496 Eh           92547.63021 eV
Virial Ratio       :            2.00342973


DFT components:
N(Alpha)           :      126.000143584916 electrons
N(Beta)            :      123.000145766192 electrons
N(Total)           :      249.000289351108 electrons
E(X)               :     -218.496460416045 Eh       
E(C)               :      -10.791653549377 Eh       
E(XC)              :     -229.288113965421 Eh       
DFET-embed. en.    :        0.000000000000 Eh       

---------------
SCF CONVERGENCE
---------------

  Last Energy change         ...   -6.1173e-08  Tolerance :   1.0000e-06
  Last MAX-Density change    ...    0.0000e+00  Tolerance :   1.0000e-05
  Last RMS-Density change    ...    0.0000e+00  Tolerance :   1.0000e-06
  Last DIIS Error            ...    1.4949e-05  Tolerance :   1.0000e-06

             **** THE GBW FILE WAS UPDATED (picolinate_kcl_freq.gbw) ****
             **** DENSITY picolinate_kcl_freq.scfp WAS UPDATED ****
             **** ENERGY FILE WAS UPDATED (picolinate_kcl_freq.en.tmp) ****
----------------------
UHF SPIN CONTAMINATION
----------------------

Warning: in a DFT calculation there is little theoretical justification to 
         calculate <S**2> as in Hartree-Fock theory. We will do it anyways
         but you should keep in mind that the values have only limited relevance

Expectation value of <S**2>     :     3.770703
Ideal value S*(S+1) for S=1.5   :     3.750000
Deviation                       :     0.020703

             **** THE GBW FILE WAS UPDATED (picolinate_kcl_freq.gbw) ****
             **** DENSITY picolinate_kcl_freq.scfp WAS UPDATED ****
----------------
ORBITAL ENERGIES
----------------
                 SPIN UP ORBITALS
  NO   OCC          E(Eh)            E(eV) 
   0   1.0000    -215.791700     -5871.9907 
   1   1.0000    -129.764795     -3531.0796 
   2   1.0000    -101.405209     -2759.3760 
   3   1.0000     -24.813242      -675.2026 
   4   1.0000     -21.102963      -574.2408 
   5   1.0000     -21.102349      -574.2241 
   6   1.0000     -21.101936      -574.2129 
   7   1.0000     -19.168678      -521.6063 
   8   1.0000     -19.152861      -521.1758 
   9   1.0000     -19.145524      -520.9762 
  10   1.0000     -19.138639      -520.7888 
  11   1.0000     -19.124096      -520.3931 
  12   1.0000     -19.116016      -520.1732 
  13   1.0000     -14.407673      -392.0527 
  14   1.0000     -14.395595      -391.7241 
  15   1.0000     -14.392584      -391.6421 
  16   1.0000     -13.196454      -359.0938 
  17   1.0000     -10.538305      -286.7618 
  18   1.0000     -10.538257      -286.7605 
  19   1.0000     -10.538216      -286.7594 
  20   1.0000     -10.332641      -281.1655 
  21   1.0000     -10.305115      -280.4164 
  22   1.0000     -10.298294      -280.2308 
  23   1.0000     -10.273661      -279.5605 
  24   1.0000     -10.269105      -279.4365 
  25   1.0000     -10.257327      -279.1161 
  26   1.0000     -10.252184      -278.9761 
  27   1.0000     -10.251930      -278.9692 
  28   1.0000     -10.250818      -278.9389 
  29   1.0000     -10.249786      -278.9109 
  30   1.0000     -10.240774      -278.6656 
  31   1.0000     -10.238994      -278.6172 
  32   1.0000     -10.235718      -278.5281 
  33   1.0000     -10.230565      -278.3878 
  34   1.0000     -10.223283      -278.1897 
  35   1.0000     -10.223228      -278.1882 
  36   1.0000     -10.218875      -278.0697 
  37   1.0000     -10.217294      -278.0267 
  38   1.0000      -9.333328      -253.9728 
  39   1.0000      -7.090624      -192.9457 
  40   1.0000      -7.090310      -192.9371 
  41   1.0000      -7.090192      -192.9339 
  42   1.0000      -2.995610       -81.5147 
  43   1.0000      -1.943626       -52.8888 
  44   1.0000      -1.942102       -52.8473 
  45   1.0000      -1.942042       -52.8456 
  46   1.0000      -1.365748       -37.1639 
  47   1.0000      -1.101631       -29.9769 
  48   1.0000      -1.072108       -29.1735 
  49   1.0000      -1.064192       -28.9581 
  50   1.0000      -1.016198       -27.6521 
  51   1.0000      -1.003990       -27.3199 
  52   1.0000      -0.997860       -27.1531 
  53   1.0000      -0.991943       -26.9921 
  54   1.0000      -0.982757       -26.7422 
  55   1.0000      -0.976188       -26.5634 
  56   1.0000      -0.855337       -23.2749 
  57   1.0000      -0.840747       -22.8779 
  58   1.0000      -0.835870       -22.7452 
  59   1.0000      -0.822605       -22.3842 
  60   1.0000      -0.805615       -21.9219 
  61   1.0000      -0.800902       -21.7936 
  62   1.0000      -0.735063       -20.0021 
  63   1.0000      -0.733456       -19.9583 
  64   1.0000      -0.731896       -19.9159 
  65   1.0000      -0.698135       -18.9972 
  66   1.0000      -0.681850       -18.5541 
  67   1.0000      -0.680396       -18.5145 
  68   1.0000      -0.678038       -18.4503 
  69   1.0000      -0.675305       -18.3760 
  70   1.0000      -0.665605       -18.1120 
  71   1.0000      -0.661964       -18.0129 
  72   1.0000      -0.609753       -16.5922 
  73   1.0000      -0.591149       -16.0860 
  74   1.0000      -0.585377       -15.9289 
  75   1.0000      -0.558991       -15.2109 
  76   1.0000      -0.542294       -14.7566 
  77   1.0000      -0.535591       -14.5742 
  78   1.0000      -0.529602       -14.4112 
  79   1.0000      -0.524133       -14.2624 
  80   1.0000      -0.519262       -14.1298 
  81   1.0000      -0.516439       -14.0530 
  82   1.0000      -0.495587       -13.4856 
  83   1.0000      -0.494282       -13.4501 
  84   1.0000      -0.491094       -13.3634 
  85   1.0000      -0.484096       -13.1729 
  86   1.0000      -0.477222       -12.9859 
  87   1.0000      -0.471066       -12.8184 
  88   1.0000      -0.470694       -12.8082 
  89   1.0000      -0.465679       -12.6718 
  90   1.0000      -0.462696       -12.5906 
  91   1.0000      -0.453965       -12.3530 
  92   1.0000      -0.451092       -12.2748 
  93   1.0000      -0.446141       -12.1401 
  94   1.0000      -0.437672       -11.9097 
  95   1.0000      -0.432603       -11.7717 
  96   1.0000      -0.426748       -11.6124 
  97   1.0000      -0.423061       -11.5121 
  98   1.0000      -0.416739       -11.3400 
  99   1.0000      -0.410548       -11.1716 
 100   1.0000      -0.404432       -11.0052 
 101   1.0000      -0.400718       -10.9041 
 102   1.0000      -0.375547       -10.2192 
 103   1.0000      -0.360993        -9.8231 
 104   1.0000      -0.356030        -9.6881 
 105   1.0000      -0.349922        -9.5219 
 106   1.0000      -0.348049        -9.4709 
 107   1.0000      -0.343337        -9.3427 
 108   1.0000      -0.333058        -9.0630 
 109   1.0000      -0.330382        -8.9901 
 110   1.0000      -0.319656        -8.6983 
 111   1.0000      -0.314819        -8.5667 
 112   1.0000      -0.311081        -8.4650 
 113   1.0000      -0.308391        -8.3917 
 114   1.0000      -0.303158        -8.2494 
 115   1.0000      -0.296540        -8.0693 
 116   1.0000      -0.293885        -7.9970 
 117   1.0000      -0.287081        -7.8119 
 118   1.0000      -0.276804        -7.5322 
 119   1.0000      -0.267954        -7.2914 
 120   1.0000      -0.262851        -7.1525 
 121   1.0000      -0.259009        -7.0480 
 122   1.0000      -0.253403        -6.8955 
 123   1.0000      -0.230299        -6.2668 
 124   1.0000      -0.223292        -6.0761 
 125   1.0000      -0.221977        -6.0403 
 126   0.0000      -0.094354        -2.5675 
 127   0.0000      -0.078807        -2.1444 
 128   0.0000      -0.072285        -1.9670 
 129   0.0000      -0.069686        -1.8962 
 130   0.0000      -0.055827        -1.5191 
 131   0.0000      -0.051965        -1.4140 
 132   0.0000      -0.048674        -1.3245 
 133   0.0000      -0.041053        -1.1171 
 134   0.0000      -0.028473        -0.7748 
 135   0.0000      -0.019613        -0.5337 
 136   0.0000      -0.009407        -0.2560 
 137   0.0000      -0.005242        -0.1426 
 138   0.0000       0.003929         0.1069 
 139   0.0000       0.007505         0.2042 
 140   0.0000       0.009412         0.2561 
 141   0.0000       0.012658         0.3444 
 142   0.0000       0.017319         0.4713 
 143   0.0000       0.018750         0.5102 
 144   0.0000       0.020369         0.5543 
 145   0.0000       0.023055         0.6273 
 146   0.0000       0.026084         0.7098 
 147   0.0000       0.027286         0.7425 
 148   0.0000       0.028466         0.7746 
 149   0.0000       0.031503         0.8572 
 150   0.0000       0.035059         0.9540 
 151   0.0000       0.037454         1.0192 
 152   0.0000       0.040247         1.0952 
 153   0.0000       0.044375         1.2075 
 154   0.0000       0.047863         1.3024 
 155   0.0000       0.050387         1.3711 
 156   0.0000       0.053448         1.4544 
 157   0.0000       0.056768         1.5447 
 158   0.0000       0.059098         1.6081 
 159   0.0000       0.063365         1.7242 
 160   0.0000       0.065961         1.7949 
 161   0.0000       0.067218         1.8291 
 162   0.0000       0.074361         2.0235 
 163   0.0000       0.076711         2.0874 
 164   0.0000       0.078710         2.1418 
 165   0.0000       0.082685         2.2500 
 166   0.0000       0.088355         2.4042 
 167   0.0000       0.089437         2.4337 
 168   0.0000       0.092403         2.5144 
 169   0.0000       0.095032         2.5859 
 170   0.0000       0.097291         2.6474 
 171   0.0000       0.099007         2.6941 
 172   0.0000       0.099866         2.7175 
 173   0.0000       0.102865         2.7991 
 174   0.0000       0.105543         2.8720 
 175   0.0000       0.107624         2.9286 
 176   0.0000       0.111158         3.0248 
 177   0.0000       0.112343         3.0570 
 178   0.0000       0.112999         3.0748 
 179   0.0000       0.116732         3.1765 
 180   0.0000       0.118508         3.2248 
 181   0.0000       0.120347         3.2748 
 182   0.0000       0.121847         3.3156 
 183   0.0000       0.123646         3.3646 
 184   0.0000       0.126575         3.4443 
 185   0.0000       0.128678         3.5015 
 186   0.0000       0.130294         3.5455 
 187   0.0000       0.131633         3.5819 
 188   0.0000       0.134088         3.6487 
 189   0.0000       0.136194         3.7060 
 190   0.0000       0.137343         3.7373 
 191   0.0000       0.140427         3.8212 
 192   0.0000       0.141408         3.8479 
 193   0.0000       0.143144         3.8951 
 194   0.0000       0.146524         3.9871 
 195   0.0000       0.147684         4.0187 
 196   0.0000       0.150013         4.0821 
 197   0.0000       0.151198         4.1143 
 198   0.0000       0.153558         4.1785 
 199   0.0000       0.156764         4.2658 
 200   0.0000       0.158032         4.3003 
 201   0.0000       0.161802         4.4029 
 202   0.0000       0.163301         4.4437 
 203   0.0000       0.165724         4.5096 
 204   0.0000       0.171933         4.6785 
 205   0.0000       0.174885         4.7589 
 206   0.0000       0.178078         4.8457 
 207   0.0000       0.180000         4.8981 
 208   0.0000       0.183319         4.9884 
 209   0.0000       0.185832         5.0567 
 210   0.0000       0.186208         5.0670 
 211   0.0000       0.189603         5.1593 
 212   0.0000       0.192299         5.2327 
 213   0.0000       0.194349         5.2885 
 214   0.0000       0.197244         5.3673 
 215   0.0000       0.201175         5.4742 
 216   0.0000       0.202022         5.4973 
 217   0.0000       0.204092         5.5536 
 218   0.0000       0.206749         5.6259 
 219   0.0000       0.209651         5.7049 
 220   0.0000       0.210669         5.7326 
 221   0.0000       0.214374         5.8334 
 222   0.0000       0.215726         5.8702 
 223   0.0000       0.217608         5.9214 
 224   0.0000       0.221214         6.0195 
 225   0.0000       0.224628         6.1124 
 226   0.0000       0.229450         6.2437 
 227   0.0000       0.230865         6.2822 
 228   0.0000       0.231704         6.3050 
 229   0.0000       0.237520         6.4632 
 230   0.0000       0.238224         6.4824 
 231   0.0000       0.241917         6.5829 
 232   0.0000       0.245825         6.6892 
 233   0.0000       0.247193         6.7265 
 234   0.0000       0.248691         6.7672 
 235   0.0000       0.250627         6.8199 
 236   0.0000       0.253618         6.9013 
 237   0.0000       0.256382         6.9765 
 238   0.0000       0.259212         7.0535 
 239   0.0000       0.261726         7.1219 
 240   0.0000       0.263058         7.1582 
 241   0.0000       0.265462         7.2236 
 242   0.0000       0.269355         7.3295 
 243   0.0000       0.271496         7.3878 
 244   0.0000       0.273332         7.4378 
 245   0.0000       0.280064         7.6209 
 246   0.0000       0.281596         7.6626 
 247   0.0000       0.281985         7.6732 
 248   0.0000       0.286147         7.7864 
 249   0.0000       0.288066         7.8387 
 250   0.0000       0.289330         7.8731 
 251   0.0000       0.292172         7.9504 
 252   0.0000       0.296993         8.0816 
 253   0.0000       0.298471         8.1218 
 254   0.0000       0.301732         8.2106 
 255   0.0000       0.306522         8.3409 
 256   0.0000       0.309572         8.4239 
 257   0.0000       0.313752         8.5376 
 258   0.0000       0.318718         8.6728 
 259   0.0000       0.319827         8.7029 
 260   0.0000       0.321329         8.7438 
 261   0.0000       0.322314         8.7706 
 262   0.0000       0.330081         8.9819 
 263   0.0000       0.331591         9.0231 
 264   0.0000       0.334999         9.1158 
 265   0.0000       0.337546         9.1851 
 266   0.0000       0.338414         9.2087 
 267   0.0000       0.340033         9.2528 
 268   0.0000       0.345280         9.3955 
 269   0.0000       0.346847         9.4382 
 270   0.0000       0.349447         9.5089 
 271   0.0000       0.351903         9.5758 
 272   0.0000       0.356927         9.7125 
 273   0.0000       0.357370         9.7245 
 274   0.0000       0.358471         9.7545 
 275   0.0000       0.360653         9.8139 
 276   0.0000       0.362729         9.8703 
 277   0.0000       0.363733         9.8977 
 278   0.0000       0.368899        10.0382 
 279   0.0000       0.372383        10.1331 
 280   0.0000       0.374839        10.1999 
 281   0.0000       0.378301        10.2941 
 282   0.0000       0.380140        10.3441 
 283   0.0000       0.382318        10.4034 
 284   0.0000       0.384846        10.4722 
 285   0.0000       0.388430        10.5697 
 286   0.0000       0.395651        10.7662 
 287   0.0000       0.396779        10.7969 
 288   0.0000       0.397394        10.8136 
 289   0.0000       0.406061        11.0495 
 290   0.0000       0.412404        11.2221 
 291   0.0000       0.414261        11.2726 
 292   0.0000       0.415031        11.2936 
 293   0.0000       0.418015        11.3748 
 294   0.0000       0.425991        11.5918 
 295   0.0000       0.426784        11.6134 
 296   0.0000       0.429472        11.6865 
 297   0.0000       0.437454        11.9037 
 298   0.0000       0.441337        12.0094 
 299   0.0000       0.447521        12.1777 
 300   0.0000       0.449779        12.2391 
 301   0.0000       0.455774        12.4022 
 302   0.0000       0.460472        12.5301 
 303   0.0000       0.463355        12.6085 
 304   0.0000       0.466179        12.6854 
 305   0.0000       0.472862        12.8672 
 306   0.0000       0.474516        12.9122 
 307   0.0000       0.481789        13.1102 
 308   0.0000       0.491450        13.3730 
 309   0.0000       0.494648        13.4601 
 310   0.0000       0.497741        13.5442 
 311   0.0000       0.502970        13.6865 
 312   0.0000       0.509973        13.8771 
 313   0.0000       0.511955        13.9310 
 314   0.0000       0.519992        14.1497 
 315   0.0000       0.524070        14.2607 
 316   0.0000       0.526322        14.3220 
 317   0.0000       0.529411        14.4060 
 318   0.0000       0.539046        14.6682 
 319   0.0000       0.541559        14.7366 
 320   0.0000       0.549404        14.9501 
 321   0.0000       0.561763        15.2863 
 322   0.0000       0.570977        15.5371 
 323   0.0000       0.580376        15.7928 
 324   0.0000       0.588204        16.0058 
 325   0.0000       0.589734        16.0475 
 326   0.0000       0.602577        16.3970 
 327   0.0000       0.606981        16.5168 
 328   0.0000       0.612474        16.6663 
 329   0.0000       0.619444        16.8559 
 330   0.0000       0.636119        17.3097 
 331   0.0000       0.642124        17.4731 
 332   0.0000       0.652316        17.7504 
 333   0.0000       0.676146        18.3989 
 334   0.0000       0.689356        18.7583 
 335   0.0000       0.692078        18.8324 
 336   0.0000       0.699620        19.0376 
 337   0.0000       0.708419        19.2771 
 338   0.0000       0.712131        19.3781 
 339   0.0000       0.717674        19.5289 
 340   0.0000       0.722318        19.6553 
 341   0.0000       0.725156        19.7325 
 342   0.0000       0.728342        19.8192 
 343   0.0000       0.739884        20.1333 
 344   0.0000       0.743066        20.2199 
 345   0.0000       0.746547        20.3146 
 346   0.0000       0.751226        20.4419 
 347   0.0000       0.756616        20.5886 
 348   0.0000       0.762601        20.7514 
 349   0.0000       0.766883        20.8679 
 350   0.0000       0.768093        20.9009 
 351   0.0000       0.768956        20.9244 
 352   0.0000       0.774752        21.0821 
 353   0.0000       0.787013        21.4157 
 354   0.0000       0.791723        21.5439 
 355   0.0000       0.796613        21.6769 
 356   0.0000       0.803763        21.8715 
 357   0.0000       0.810712        22.0606 
 358   0.0000       0.822766        22.3886 
 359   0.0000       0.829907        22.5829 
 360   0.0000       0.832737        22.6599 
 361   0.0000       0.837810        22.7980 
 362   0.0000       0.856476        23.3059 
 363   0.0000       0.860355        23.4115 
 364   0.0000       0.864672        23.5289 
 365   0.0000       0.880905        23.9706 
 366   0.0000       0.887196        24.1418 
 367   0.0000       0.897737        24.4287 
 368   0.0000       0.902952        24.5706 
 369   0.0000       0.917756        24.9734 
 370   0.0000       0.924656        25.1612 
 371   0.0000       0.929967        25.3057 
 372   0.0000       0.934187        25.4205 
 373   0.0000       0.937073        25.4991 
 374   0.0000       0.943137        25.6641 
 375   0.0000       0.951421        25.8895 
 376   0.0000       0.954316        25.9683 
 377   0.0000       0.957163        26.0457 
 378   0.0000       0.967658        26.3313 
 379   0.0000       0.968577        26.3563 
 380   0.0000       0.970956        26.4210 
 381   0.0000       0.981790        26.7159 
 382   0.0000       0.983813        26.7709 
 383   0.0000       0.985367        26.8132 
 384   0.0000       0.993141        27.0248 
 385   0.0000       0.995806        27.0972 
 386   0.0000       1.005211        27.3532 
 387   0.0000       1.010475        27.4964 
 388   0.0000       1.019301        27.7366 
 389   0.0000       1.027149        27.9502 
 390   0.0000       1.046095        28.4657 
 391   0.0000       1.052871        28.6501 
 392   0.0000       1.061843        28.8942 
 393   0.0000       1.072547        29.1855 
 394   0.0000       1.084998        29.5243 
 395   0.0000       1.090156        29.6647 
 396   0.0000       1.095204        29.8020 
 397   0.0000       1.101135        29.9634 
 398   0.0000       1.109776        30.1985 
 399   0.0000       1.117987        30.4220 
 400   0.0000       1.125496        30.6263 
 401   0.0000       1.127451        30.6795 
 402   0.0000       1.136042        30.9133 
 403   0.0000       1.147590        31.2275 
 404   0.0000       1.154840        31.4248 
 405   0.0000       1.156918        31.4813 
 406   0.0000       1.167788        31.7771 
 407   0.0000       1.168459        31.7954 
 408   0.0000       1.178964        32.0812 
 409   0.0000       1.185988        32.2724 
 410   0.0000       1.197720        32.5916 
 411   0.0000       1.202883        32.7321 
 412   0.0000       1.206254        32.8238 
 413   0.0000       1.216495        33.1025 
 414   0.0000       1.219019        33.1712 
 415   0.0000       1.226666        33.3793 
 416   0.0000       1.231748        33.5176 
 417   0.0000       1.245123        33.8815 
 418   0.0000       1.252714        34.0881 
 419   0.0000       1.266255        34.4566 
 420   0.0000       1.268814        34.5262 
 421   0.0000       1.282091        34.8875 
 422   0.0000       1.289599        35.0918 
 423   0.0000       1.293385        35.1948 
 424   0.0000       1.309164        35.6242 
 425   0.0000       1.316769        35.8311 
 426   0.0000       1.320565        35.9344 
 427   0.0000       1.325466        36.0678 
 428   0.0000       1.328757        36.1573 
 429   0.0000       1.331620        36.2352 
 430   0.0000       1.335865        36.3507 
 431   0.0000       1.344391        36.5827 
 432   0.0000       1.347778        36.6749 
 433   0.0000       1.349757        36.7287 
 434   0.0000       1.351653        36.7803 
 435   0.0000       1.361811        37.0568 
 436   0.0000       1.363672        37.1074 
 437   0.0000       1.368662        37.2432 
 438   0.0000       1.372333        37.3431 
 439   0.0000       1.375355        37.4253 
 440   0.0000       1.380903        37.5763 
 441   0.0000       1.383789        37.6548 
 442   0.0000       1.388978        37.7960 
 443   0.0000       1.397146        38.0183 
 444   0.0000       1.398624        38.0585 
 445   0.0000       1.402997        38.1775 
 446   0.0000       1.407317        38.2950 
 447   0.0000       1.412226        38.4286 
 448   0.0000       1.414718        38.4964 
 449   0.0000       1.422325        38.7034 
 450   0.0000       1.425194        38.7815 
 451   0.0000       1.438057        39.1315 
 452   0.0000       1.441610        39.2282 
 453   0.0000       1.445670        39.3387 
 454   0.0000       1.447113        39.3780 
 455   0.0000       1.458086        39.6765 
 456   0.0000       1.459733        39.7214 
 457   0.0000       1.468316        39.9549 
 458   0.0000       1.475876        40.1606 
 459   0.0000       1.486448        40.4483 
 460   0.0000       1.490689        40.5637 
 461   0.0000       1.492429        40.6111 
 462   0.0000       1.500406        40.8281 
 463   0.0000       1.512758        41.1642 
 464   0.0000       1.522601        41.4321 
 465   0.0000       1.531680        41.6791 
 466   0.0000       1.549858        42.1738 
 467   0.0000       1.555446        42.3258 
 468   0.0000       1.568213        42.6733 
 469   0.0000       1.577724        42.9320 
 470   0.0000       1.588983        43.2384 
 471   0.0000       1.606530        43.7159 
 472   0.0000       1.613002        43.8920 
 473   0.0000       1.630070        44.3565 
 474   0.0000       1.644400        44.7464 
 475   0.0000       1.652667        44.9713 
 476   0.0000       1.661061        45.1998 
 477   0.0000       1.690909        46.0120 
 478   0.0000       1.696051        46.1519 
 479   0.0000       1.717941        46.7475 
 480   0.0000       1.730709        47.0950 
 481   0.0000       1.734425        47.1961 
 482   0.0000       1.741931        47.4004 
 483   0.0000       1.755356        47.7657 
 484   0.0000       1.758946        47.8633 
 485   0.0000       1.769026        48.1376 
 486   0.0000       1.787751        48.6472 
 487   0.0000       1.792221        48.7688 
 488   0.0000       1.802984        49.0617 
 489   0.0000       1.809685        49.2440 
 490   0.0000       1.814818        49.3837 
 491   0.0000       1.828706        49.7616 
 492   0.0000       1.829397        49.7804 
 493   0.0000       1.852459        50.4080 
 494   0.0000       1.856116        50.5075 
 495   0.0000       1.872562        50.9550 
 496   0.0000       1.873201        50.9724 
 497   0.0000       1.882575        51.2275 
 498   0.0000       1.892680        51.5024 
 499   0.0000       1.894964        51.5646 
 500   0.0000       1.902963        51.7823 
 501   0.0000       1.908818        51.9416 
 502   0.0000       1.918968        52.2178 
 503   0.0000       1.922840        52.3231 
 504   0.0000       1.925693        52.4008 
 505   0.0000       1.935331        52.6630 
 506   0.0000       1.940979        52.8167 
 507   0.0000       1.945017        52.9266 
 508   0.0000       1.951059        53.0910 
 509   0.0000       1.959593        53.3232 
 510   0.0000       1.966050        53.4989 
 511   0.0000       1.969355        53.5889 
 512   0.0000       1.981514        53.9197 
 513   0.0000       1.986100        54.0445 
 514   0.0000       1.986957        54.0678 
 515   0.0000       1.990451        54.1629 
 516   0.0000       1.996025        54.3146 
 517   0.0000       2.010851        54.7180 
 518   0.0000       2.016894        54.8825 
 519   0.0000       2.021487        55.0074 
 520   0.0000       2.037407        55.4407 
 521   0.0000       2.041235        55.5448 
 522   0.0000       2.057171        55.9785 
 523   0.0000       2.057613        55.9905 
 524   0.0000       2.070267        56.3348 
 525   0.0000       2.073753        56.4297 
 526   0.0000       2.076834        56.5135 
 527   0.0000       2.081915        56.6518 
 528   0.0000       2.094126        56.9841 
 529   0.0000       2.098489        57.1028 
 530   0.0000       2.098696        57.1084 
 531   0.0000       2.121323        57.7241 
 532   0.0000       2.129841        57.9559 
 533   0.0000       2.141599        58.2759 
 534   0.0000       2.157910        58.7197 
 535   0.0000       2.166838        58.9627 
 536   0.0000       2.179406        59.3046 
 537   0.0000       2.185668        59.4750 
 538   0.0000       2.192043        59.6485 
 539   0.0000       2.195032        59.7299 
 540   0.0000       2.209629        60.1271 
 541   0.0000       2.223760        60.5116 
 542   0.0000       2.233857        60.7863 
 543   0.0000       2.238951        60.9250 
 544   0.0000       2.256867        61.4125 
 545   0.0000       2.267823        61.7106 
 546   0.0000       2.273422        61.8630 
 547   0.0000       2.283005        62.1237 
 548   0.0000       2.285295        62.1860 
 549   0.0000       2.292400        62.3794 
 550   0.0000       2.297106        62.5074 
 551   0.0000       2.305171        62.7269 
 552   0.0000       2.308884        62.8279 
 553   0.0000       2.319831        63.1258 
 554   0.0000       2.326821        63.3160 
 555   0.0000       2.348999        63.9195 
 556   0.0000       2.353358        64.0381 
 557   0.0000       2.363338        64.3097 
 558   0.0000       2.368834        64.4593 
 559   0.0000       2.373068        64.5745 
 560   0.0000       2.376973        64.6807 
 561   0.0000       2.383886        64.8688 
 562   0.0000       2.396325        65.2073 
 563   0.0000       2.403826        65.4114 
 564   0.0000       2.414022        65.6889 
 565   0.0000       2.429987        66.1233 
 566   0.0000       2.435377        66.2700 
 567   0.0000       2.442843        66.4731 
 568   0.0000       2.453881        66.7735 
 569   0.0000       2.476194        67.3807 
 570   0.0000       2.487246        67.6814 
 571   0.0000       2.496240        67.9261 
 572   0.0000       2.510320        68.3093 
 573   0.0000       2.510948        68.3264 
 574   0.0000       2.519970        68.5719 
 575   0.0000       2.527772        68.7842 
 576   0.0000       2.534643        68.9711 
 577   0.0000       2.537908        69.0600 
 578   0.0000       2.547220        69.3134 
 579   0.0000       2.550263        69.3962 
 580   0.0000       2.567828        69.8742 
 581   0.0000       2.571577        69.9762 
 582   0.0000       2.574020        70.0426 
 583   0.0000       2.575091        70.0718 
 584   0.0000       2.583076        70.2891 
 585   0.0000       2.597078        70.6701 
 586   0.0000       2.607169        70.9447 
 587   0.0000       2.612668        71.0943 
 588   0.0000       2.626509        71.4709 
 589   0.0000       2.637647        71.7740 
 590   0.0000       2.647458        72.0410 
 591   0.0000       2.658888        72.3520 
 592   0.0000       2.669454        72.6395 
 593   0.0000       2.694825        73.3299 
 594   0.0000       2.702917        73.5501 
 595   0.0000       2.714393        73.8624 
 596   0.0000       2.719396        73.9985 
 597   0.0000       2.722138        74.0731 
 598   0.0000       2.732978        74.3681 
 599   0.0000       2.746588        74.7385 
 600   0.0000       2.747210        74.7554 
 601   0.0000       2.755018        74.9679 
 602   0.0000       2.764816        75.2345 
 603   0.0000       2.778073        75.5952 
 604   0.0000       2.794817        76.0508 
 605   0.0000       2.803396        76.2843 
 606   0.0000       2.817577        76.6702 
 607   0.0000       2.852938        77.6324 
 608   0.0000       2.853508        77.6479 
 609   0.0000       2.864391        77.9441 
 610   0.0000       2.873321        78.1870 
 611   0.0000       2.880900        78.3933 
 612   0.0000       2.903785        79.0160 
 613   0.0000       2.949729        80.2662 
 614   0.0000       2.984543        81.2136 
 615   0.0000       2.993501        81.4573 
 616   0.0000       3.015046        82.0436 
 617   0.0000       3.039056        82.6969 
 618   0.0000       3.044265        82.8387 
 619   0.0000       3.073345        83.6300 
 620   0.0000       3.075226        83.6812 
 621   0.0000       3.080150        83.8151 
 622   0.0000       3.113311        84.7175 
 623   0.0000       3.127306        85.0983 
 624   0.0000       3.137871        85.3858 
 625   0.0000       3.158357        85.9433 
 626   0.0000       3.175216        86.4020 
 627   0.0000       3.195747        86.9607 
 628   0.0000       3.216802        87.5336 
 629   0.0000       3.227222        87.8172 
 630   0.0000       3.246567        88.3436 
 631   0.0000       3.260212        88.7149 
 632   0.0000       3.271453        89.0208 
 633   0.0000       3.284848        89.3853 
 634   0.0000       3.298140        89.7469 
 635   0.0000       3.302200        89.8574 
 636   0.0000       3.306867        89.9844 
 637   0.0000       3.313193        90.1566 
 638   0.0000       3.329637        90.6040 
 639   0.0000       3.343743        90.9879 
 640   0.0000       3.357292        91.3566 
 641   0.0000       3.364377        91.5494 
 642   0.0000       3.374521        91.8254 
 643   0.0000       3.396117        92.4130 
 644   0.0000       3.397792        92.4586 
 645   0.0000       3.435914        93.4960 
 646   0.0000       3.529326        96.0378 
 647   0.0000       3.542465        96.3954 
 648   0.0000       3.554817        96.7315 
 649   0.0000       3.897197       106.0481 
 650   0.0000       3.909462       106.3819 
 651   0.0000       3.917434       106.5988 

                 SPIN DOWN ORBITALS
  NO   OCC          E(Eh)            E(eV) 
   0   1.0000    -215.791068     -5871.9735 
   1   1.0000    -129.764793     -3531.0795 
   2   1.0000    -101.405203     -2759.3759 
   3   1.0000     -24.768028      -673.9723 
   4   1.0000     -21.065404      -573.2188 
   5   1.0000     -21.065065      -573.2095 
   6   1.0000     -21.063098      -573.1560 
   7   1.0000     -19.168613      -521.6045 
   8   1.0000     -19.152565      -521.1678 
   9   1.0000     -19.145155      -520.9662 
  10   1.0000     -19.138387      -520.7820 
  11   1.0000     -19.123623      -520.3802 
  12   1.0000     -19.115649      -520.1632 
  13   1.0000     -14.408657      -392.0795 
  14   1.0000     -14.396588      -391.7511 
  15   1.0000     -14.393691      -391.6722 
  16   1.0000     -13.196451      -359.0937 
  17   1.0000     -10.538303      -286.7618 
  18   1.0000     -10.538252      -286.7604 
  19   1.0000     -10.538214      -286.7594 
  20   1.0000     -10.332533      -281.1625 
  21   1.0000     -10.305047      -280.4146 
  22   1.0000     -10.298180      -280.2277 
  23   1.0000     -10.273385      -279.5530 
  24   1.0000     -10.268786      -279.4279 
  25   1.0000     -10.257007      -279.1074 
  26   1.0000     -10.251868      -278.9675 
  27   1.0000     -10.251605      -278.9604 
  28   1.0000     -10.250505      -278.9304 
  29   1.0000     -10.249540      -278.9042 
  30   1.0000     -10.240927      -278.6698 
  31   1.0000     -10.239144      -278.6213 
  32   1.0000     -10.235453      -278.5208 
  33   1.0000     -10.230324      -278.3813 
  34   1.0000     -10.223451      -278.1943 
  35   1.0000     -10.223395      -278.1927 
  36   1.0000     -10.219033      -278.0740 
  37   1.0000     -10.217455      -278.0311 
  38   1.0000      -9.333323      -253.9726 
  39   1.0000      -7.090619      -192.9456 
  40   1.0000      -7.090304      -192.9370 
  41   1.0000      -7.090179      -192.9336 
  42   1.0000      -2.866308       -77.9962 
  43   1.0000      -1.808467       -49.2109 
  44   1.0000      -1.807745       -49.1913 
  45   1.0000      -1.802921       -49.0600 
  46   1.0000      -1.365737       -37.1636 
  47   1.0000      -1.101061       -29.9614 
  48   1.0000      -1.071134       -29.1470 
  49   1.0000      -1.063384       -28.9361 
  50   1.0000      -1.016075       -27.6488 
  51   1.0000      -1.004027       -27.3210 
  52   1.0000      -0.998004       -27.1571 
  53   1.0000      -0.992312       -27.0022 
  54   1.0000      -0.981851       -26.7175 
  55   1.0000      -0.975423       -26.5426 
  56   1.0000      -0.855400       -23.2766 
  57   1.0000      -0.840799       -22.8793 
  58   1.0000      -0.835975       -22.7480 
  59   1.0000      -0.822311       -22.3762 
  60   1.0000      -0.805285       -21.9129 
  61   1.0000      -0.800591       -21.7852 
  62   1.0000      -0.735056       -20.0019 
  63   1.0000      -0.733441       -19.9580 
  64   1.0000      -0.731876       -19.9154 
  65   1.0000      -0.698033       -18.9945 
  66   1.0000      -0.681657       -18.5488 
  67   1.0000      -0.680246       -18.5104 
[...]
----------------------------------------------------------------------------
 11:      5.65   0.000500    2.53  0.027578  ( 0.160839  0.034889  0.022178)
 12:     37.32   0.000286    1.45  0.002392  (-0.013032 -0.028492  0.037549)
 13:     44.39   0.005456   27.57  0.038357  (-0.037651 -0.149558  0.120716)
 14:     57.47   0.000205    1.04  0.001116  (-0.024628  0.011349 -0.019507)
 15:     69.77   0.004168   21.06  0.018641  ( 0.010808 -0.083324 -0.107614)
 16:     93.32   0.000100    0.50  0.000334  (-0.013062  0.010239 -0.007634)
 17:     98.46   0.000757    3.83  0.002399  ( 0.019612  0.037752 -0.024280)
 18:    123.57   0.001395    7.05  0.003523  (-0.004218  0.020941  0.055382)
 19:    130.48   0.003019   15.25  0.007219  (-0.007076  0.048611  0.069327)
 20:    140.53   0.000738    3.73  0.001640  ( 0.012629  0.003822  0.038286)
 21:    157.32   0.001189    6.01  0.002359  (-0.003052 -0.000488 -0.048468)
 22:    166.46   0.000679    3.43  0.001274  ( 0.019308  0.014235  0.026426)
 23:    173.40   0.000808    4.08  0.001455  ( 0.008166 -0.026273 -0.026412)
 24:    184.69   0.000367    1.85  0.000620  (-0.005699 -0.023570 -0.005660)
 25:    187.48   0.000184    0.93  0.000307  (-0.008152 -0.009873  0.011961)
 26:    196.81   0.000104    0.53  0.000165  ( 0.007663 -0.005969 -0.008416)
 27:    216.74   0.000011    0.06  0.000016  (-0.000238  0.003790 -0.001160)
 28:    225.57   0.005308   26.82  0.007343  ( 0.085412 -0.003105  0.006147)
 29:    229.83   0.000211    1.07  0.000287  ( 0.006083  0.002129  0.015668)
 30:    260.65   0.004740   23.95  0.005675  (-0.056664  0.047476  0.014492)
 31:    283.32   0.002303   11.64  0.002536  ( 0.014293  0.048070 -0.004612)
 32:    297.17   0.002022   10.22  0.002124  ( 0.007242 -0.044810  0.007951)
 33:    358.59   0.003093   15.63  0.002692  (-0.033757  0.035928  0.016170)
 34:    380.77   0.007746   39.15  0.006349  ( 0.019241 -0.074005  0.022398)
 35:    388.31   0.005632   28.46  0.004526  (-0.061511 -0.018538 -0.019970)
 36:    411.30   0.000557    2.82  0.000423  (-0.015963  0.009347 -0.008983)
 37:    417.45   0.000591    2.99  0.000442  ( 0.013905  0.014337  0.006565)
 38:    419.70   0.001465    7.40  0.001089  (-0.017496  0.023979  0.014428)
 39:    443.43   0.000206    1.04  0.000145  ( 0.002297 -0.011802  0.000511)
 40:    446.64   0.001004    5.07  0.000702  ( 0.014860 -0.021914 -0.000759)
 41:    453.56   0.000159    0.80  0.000109  ( 0.004780  0.006538 -0.006625)
 42:    466.57   0.002752   13.91  0.001841  ( 0.006048  0.031350 -0.028656)
 43:    475.21   0.014348   72.51  0.009422  ( 0.041456 -0.027268  0.083426)
 44:    479.50   0.019165   96.85  0.012473  ( 0.081555  0.072768  0.022946)
 45:    540.84   0.000104    0.53  0.000060  ( 0.002836  0.005569 -0.004596)
 46:    544.30   0.000220    1.11  0.000126  (-0.002767 -0.007538 -0.007857)
 47:    547.63   0.000101    0.51  0.000058  ( 0.001837  0.002942 -0.006752)
 48:    667.48   0.001648    8.33  0.000770  (-0.020320  0.018895 -0.000728)
 49:    668.43   0.001846    9.33  0.000862  (-0.023576 -0.015151  0.008734)
 50:    672.81   0.004184   21.14  0.001941  (-0.007273  0.042076  0.010829)
 51:    677.42   0.009054   45.75  0.004171  ( 0.031992 -0.018363  0.053011)
 52:    683.13   0.008066   40.76  0.003685  ( 0.031356 -0.048487 -0.018720)
 53:    696.00   0.007423   37.51  0.003328  (-0.036563 -0.043567  0.009667)
 54:    722.63   0.001759    8.89  0.000760  ( 0.016617 -0.016049  0.015028)
 55:    726.91   0.005992   30.28  0.002573  ( 0.045818  0.014625 -0.016103)
 56:    732.33   0.008222   41.55  0.003504  ( 0.005437 -0.019789 -0.055520)
 57:    754.15   0.005181   26.19  0.002144  (-0.025191  0.001610 -0.038819)
 58:    757.49   0.004599   23.24  0.001895  ( 0.033947 -0.025332 -0.010022)
 59:    760.17   0.006366   32.17  0.002613  (-0.026040 -0.042609  0.010936)
 60:    810.33   0.000426    2.15  0.000164  ( 0.008084 -0.005573  0.008227)
 61:    815.24   0.000831    4.20  0.000318  (-0.002434 -0.017179 -0.004110)
 62:    829.75   0.000288    1.45  0.000108  (-0.006545 -0.005147  0.006237)
 63:    861.16   0.005314   26.85  0.001926  (-0.039969 -0.007184 -0.016628)
 64:    865.23   0.012230   61.81  0.004411  (-0.037113 -0.012769  0.053578)
 65:    878.70   0.009132   46.15  0.003243  (-0.011825 -0.021912 -0.051217)
 66:    900.82   0.000365    1.84  0.000126  (-0.004790 -0.000642 -0.010153)
 67:    908.26   0.000164    0.83  0.000056  (-0.003063 -0.002116 -0.006512)
 68:    919.93   0.000055    0.28  0.000019  ( 0.003225  0.002652 -0.001135)
 69:    964.06   0.000064    0.32  0.000021  ( 0.000060  0.002169  0.003996)
 70:    973.00   0.001073    5.42  0.000344  ( 0.006215 -0.011384 -0.013263)
 71:    997.00   0.000100    0.50  0.000031  (-0.003969 -0.001792  0.003508)
 72:   1010.70   0.000051    0.26  0.000016  (-0.002806  0.000771 -0.002685)
 73:   1015.02   0.000026    0.13  0.000008  ( 0.000643 -0.001609  0.002257)
 74:   1018.05   0.000011    0.06  0.000003  ( 0.001661  0.000674  0.000412)
 75:   1059.75   0.003367   17.02  0.000991  ( 0.028543  0.012560 -0.004359)
 76:   1061.98   0.004903   24.78  0.001441  (-0.016249  0.034296  0.000660)
 77:   1062.68   0.000591    2.99  0.000173  ( 0.005292 -0.011365 -0.004036)
 78:   1078.97   0.004570   23.10  0.001322  (-0.028629  0.022368 -0.001359)
 79:   1082.30   0.003966   20.04  0.001144  ( 0.026069  0.021522 -0.000839)
 80:   1085.23   0.004539   22.94  0.001305  ( 0.010385 -0.034601 -0.000485)
 81:   1124.96   0.002351   11.88  0.000652  (-0.015364 -0.018819  0.007869)
 82:   1126.22   0.003540   17.89  0.000981  ( 0.017860 -0.025128 -0.005513)
 83:   1127.18   0.000392    1.98  0.000108  ( 0.003855 -0.007908 -0.005570)
 84:   1177.32   0.000412    2.08  0.000109  ( 0.000956  0.004120 -0.009553)
 85:   1178.89   0.000500    2.53  0.000132  (-0.009979 -0.000413  0.005710)
 86:   1179.50   0.000396    2.00  0.000105  ( 0.004095  0.004429  0.008272)
 87:   1198.91   0.013997   70.74  0.003643  ( 0.033222  0.049370  0.010110)
 88:   1200.66   0.004605   23.27  0.001197  (-0.013158  0.021725 -0.023487)
 89:   1210.71   0.003287   16.61  0.000847  ( 0.017624 -0.015477  0.017240)
 90:   1315.16   0.002726   13.78  0.000647  ( 0.021006  0.014196 -0.002026)
 91:   1318.13   0.002908   14.69  0.000688  (-0.026042  0.000117  0.003197)
 92:   1320.14   0.003666   18.52  0.000866  (-0.007929  0.028276 -0.002026)
 93:   1331.10   0.054586  275.86  0.012797  ( 0.054218  0.098541 -0.012142)
 94:   1343.14   0.071993  363.82  0.016727  ( 0.098261 -0.077362 -0.032965)
 95:   1364.51   0.017492   88.40  0.004000  ( 0.026425 -0.057062 -0.006786)
 96:   1378.32   0.018327   92.62  0.004149  ( 0.004241  0.064273  0.000563)
 97:   1382.23   0.012068   60.98  0.002724  (-0.051948  0.004204 -0.002873)
 98:   1407.44   0.047236  238.71  0.010473  (-0.050773  0.088731  0.004726)
 99:   1488.55   0.002811   14.21  0.000589  ( 0.011304  0.004903  0.020918)
100:   1490.13   0.003702   18.71  0.000775  (-0.014682 -0.023101  0.005104)
101:   1492.82   0.001905    9.63  0.000398  (-0.011223  0.015804 -0.004750)
102:   1521.23   0.004186   21.16  0.000859  (-0.013601 -0.013847 -0.021956)
103:   1523.57   0.004085   20.65  0.000837  (-0.008100 -0.021023  0.018143)
104:   1525.17   0.003405   17.21  0.000697  (-0.018897  0.008617 -0.016288)
105:   1642.32   0.001362    6.88  0.000259  ( 0.007062  0.008481  0.011704)
106:   1643.41   0.001624    8.21  0.000308  (-0.010642 -0.008607  0.011005)
107:   1647.95   0.001253    6.33  0.000237  ( 0.007559 -0.003083  0.013062)
108:   1678.60   0.009960   50.33  0.001852  (-0.037761 -0.009718 -0.018202)
109:   1680.05   0.006958   35.16  0.001292  (-0.008418  0.031484 -0.015178)
110:   1681.18   0.007733   39.08  0.001435  (-0.003399 -0.037404  0.004980)
111:   1768.95   0.125024  631.82  0.022056  (-0.063465  0.041264 -0.127770)
112:   1810.63   0.148236  749.13  0.025549  (-0.106117 -0.100817 -0.064216)
113:   1823.08   0.074481  376.40  0.012749  ( 0.040570  0.061633 -0.085467)
114:   3238.81   0.001814    9.17  0.000175  (-0.002116  0.013051  0.000027)
115:   3239.02   0.001582    8.00  0.000152  ( 0.010776  0.006018  0.000313)
116:   3242.56   0.001152    5.82  0.000111  (-0.006627  0.007891 -0.002160)
117:   3255.73   0.000274    1.39  0.000026  (-0.003077  0.002801 -0.002997)
118:   3266.76   0.001611    8.14  0.000154  (-0.000134  0.008537  0.009000)
119:   3268.13   0.000865    4.37  0.000083  ( 0.005404 -0.007236 -0.001035)
120:   3269.56   0.000014    0.07  0.000001  (-0.000993 -0.000305  0.000536)
121:   3270.64   0.000749    3.79  0.000071  (-0.000949  0.003274  0.007738)
122:   3271.57   0.000342    1.73  0.000033  ( 0.004783 -0.001798 -0.002550)
123:   3273.07   0.000411    2.08  0.000039  ( 0.002092 -0.004348 -0.003985)
124:   3275.88   0.002824   14.27  0.000269  ( 0.003184  0.013601  0.008596)
125:   3294.84   0.000674    3.40  0.000064  (-0.002121  0.007131 -0.002908)

* The epsilon (eps) is given for a Dirac delta lineshape.
** The dipole moment derivative (T) already includes vibrational overlap.

The first frequency considered to be a vibration is 11
The total number of vibrations considered is 115


--------------------------
THERMOCHEMISTRY AT 298.15K
--------------------------

Temperature         ... 298.15 K
Pressure            ... 1.00 atm
Total Mass          ... 492.86 AMU

Throughout the following assumptions are being made:
  (1) The electronic state is orbitally nondegenerate
      but the spin degeneracy is treated
  (2) There are no thermally accessible electronically excited states
  (3) Hindered rotations indicated by low frequency modes are not
      treated as such but are treated as vibrations and this may
      cause some error
  (4) All equations used are the standard statistical mechanics
      equations for an ideal gas
  (5) All vibrations are strictly harmonic

freq.       5.65  E(vib)   ...       0.58 
freq.      37.32  E(vib)   ...       0.54 
freq.      44.39  E(vib)   ...       0.53 
freq.      57.47  E(vib)   ...       0.51 
freq.      69.77  E(vib)   ...       0.50 
freq.      93.32  E(vib)   ...       0.47 
freq.      98.46  E(vib)   ...       0.46 
freq.     123.57  E(vib)   ...       0.43 
freq.     130.48  E(vib)   ...       0.43 
freq.     140.53  E(vib)   ...       0.41 
freq.     157.32  E(vib)   ...       0.40 
freq.     166.46  E(vib)   ...       0.39 
freq.     173.40  E(vib)   ...       0.38 
freq.     184.69  E(vib)   ...       0.37 
freq.     187.48  E(vib)   ...       0.36 
freq.     196.81  E(vib)   ...       0.36 
freq.     216.74  E(vib)   ...       0.34 
freq.     225.57  E(vib)   ...       0.33 
freq.     229.83  E(vib)   ...       0.32 
freq.     260.65  E(vib)   ...       0.30 
freq.     283.32  E(vib)   ...       0.28 
freq.     297.17  E(vib)   ...       0.27 
freq.     358.59  E(vib)   ...       0.22 
freq.     380.77  E(vib)   ...       0.21 
freq.     388.31  E(vib)   ...       0.20 
freq.     411.30  E(vib)   ...       0.19 
freq.     417.45  E(vib)   ...       0.18 
freq.     419.70  E(vib)   ...       0.18 
freq.     443.43  E(vib)   ...       0.17 
freq.     446.64  E(vib)   ...       0.17 
freq.     453.56  E(vib)   ...       0.16 
freq.     466.57  E(vib)   ...       0.16 
freq.     475.21  E(vib)   ...       0.15 
freq.     479.50  E(vib)   ...       0.15 
freq.     540.84  E(vib)   ...       0.12 
freq.     544.30  E(vib)   ...       0.12 
freq.     547.63  E(vib)   ...       0.12 
freq.     667.48  E(vib)   ...       0.08 
freq.     668.43  E(vib)   ...       0.08 
freq.     672.81  E(vib)   ...       0.08 
freq.     677.42  E(vib)   ...       0.08 
freq.     683.13  E(vib)   ...       0.08 
freq.     696.00  E(vib)   ...       0.07 
freq.     722.63  E(vib)   ...       0.07 
freq.     726.91  E(vib)   ...       0.06 
freq.     732.33  E(vib)   ...       0.06 
freq.     754.15  E(vib)   ...       0.06 
freq.     757.49  E(vib)   ...       0.06 
freq.     760.17  E(vib)   ...       0.06 
freq.     810.33  E(vib)   ...       0.05 
freq.     815.24  E(vib)   ...       0.05 
freq.     829.75  E(vib)   ...       0.04 
freq.     861.16  E(vib)   ...       0.04 
freq.     865.23  E(vib)   ...       0.04 
freq.     878.70  E(vib)   ...       0.04 
freq.     900.82  E(vib)   ...       0.03 
freq.     908.26  E(vib)   ...       0.03 
freq.     919.93  E(vib)   ...       0.03 
freq.     964.06  E(vib)   ...       0.03 
freq.     973.00  E(vib)   ...       0.03 
freq.     997.00  E(vib)   ...       0.02 
freq.    1010.70  E(vib)   ...       0.02 
freq.    1015.02  E(vib)   ...       0.02 
freq.    1018.05  E(vib)   ...       0.02 
freq.    1059.75  E(vib)   ...       0.02 
freq.    1061.98  E(vib)   ...       0.02 
freq.    1062.68  E(vib)   ...       0.02 
freq.    1078.97  E(vib)   ...       0.02 
freq.    1082.30  E(vib)   ...       0.02 
freq.    1085.23  E(vib)   ...       0.02 
freq.    1124.96  E(vib)   ...       0.01 
freq.    1126.22  E(vib)   ...       0.01 
freq.    1127.18  E(vib)   ...       0.01 
freq.    1177.32  E(vib)   ...       0.01 
freq.    1178.89  E(vib)   ...       0.01 
freq.    1179.50  E(vib)   ...       0.01 
freq.    1198.91  E(vib)   ...       0.01 
freq.    1200.66  E(vib)   ...       0.01 
freq.    1210.71  E(vib)   ...       0.01 
freq.    1315.16  E(vib)   ...       0.01 
freq.    1318.13  E(vib)   ...       0.01 
freq.    1320.14  E(vib)   ...       0.01 
freq.    1331.10  E(vib)   ...       0.01 
freq.    1343.14  E(vib)   ...       0.01 
freq.    1364.51  E(vib)   ...       0.01 
freq.    1378.32  E(vib)   ...       0.01 
freq.    1382.23  E(vib)   ...       0.01 
freq.    1407.44  E(vib)   ...       0.00 
freq.    1488.55  E(vib)   ...       0.00 
freq.    1490.13  E(vib)   ...       0.00 
freq.    1492.82  E(vib)   ...       0.00 
freq.    1521.23  E(vib)   ...       0.00 
freq.    1523.57  E(vib)   ...       0.00 
freq.    1525.17  E(vib)   ...       0.00 
freq.    1642.32  E(vib)   ...       0.00 
freq.    1643.41  E(vib)   ...       0.00 
freq.    1647.95  E(vib)   ...       0.00 
freq.    1678.60  E(vib)   ...       0.00 
freq.    1680.05  E(vib)   ...       0.00 
freq.    1681.18  E(vib)   ...       0.00 
freq.    1768.95  E(vib)   ...       0.00 
freq.    1810.63  E(vib)   ...       0.00 
freq.    1823.08  E(vib)   ...       0.00 
freq.    3238.81  E(vib)   ...       0.00 
freq.    3239.02  E(vib)   ...       0.00 
freq.    3242.56  E(vib)   ...       0.00 
freq.    3255.73  E(vib)   ...       0.00 
freq.    3266.76  E(vib)   ...       0.00 
freq.    3268.13  E(vib)   ...       0.00 
freq.    3269.56  E(vib)   ...       0.00 
freq.    3270.64  E(vib)   ...       0.00 
freq.    3271.57  E(vib)   ...       0.00 
freq.    3273.07  E(vib)   ...       0.00 
freq.    3275.88  E(vib)   ...       0.00 
freq.    3294.84  E(vib)   ...       0.00 

------------
INNER ENERGY
------------

The inner energy is: U= E(el) + E(ZPE) + E(vib) + E(rot) + E(trans)
    E(el)   - is the total energy from the electronic structure calculation
              = E(kin-el) + E(nuc-el) + E(el-el) + E(nuc-nuc)
    E(ZPE)  - the the zero temperature vibrational energy from the frequency calculation
    E(vib)  - the the finite temperature correction to E(ZPE) due to population
              of excited vibrational states
    E(rot)  - is the rotational thermal energy
    E(trans)- is the translational thermal energy

Summary of contributions to the inner energy U:
Electronic energy                ...  -3412.84769432 Eh
Zero point energy                ...      0.28508988 Eh     178.90 kcal/mol
Thermal vibrational correction   ...      0.02081775 Eh      13.06 kcal/mol
Thermal rotational correction    ...      0.00141627 Eh       0.89 kcal/mol
Thermal translational correction ...      0.00141627 Eh       0.89 kcal/mol
-----------------------------------------------------------------------
Total thermal energy                  -3412.53895415 Eh


Summary of corrections to the electronic energy:
(perhaps to be used in another calculation)
Total thermal correction                  0.02365029 Eh      14.84 kcal/mol
Non-thermal (ZPE) correction              0.28508988 Eh     178.90 kcal/mol
-----------------------------------------------------------------------
Total correction                          0.30874018 Eh     193.74 kcal/mol


--------
ENTHALPY
--------

The enthalpy is H = U + kB*T
                kB is Boltzmann's constant
Total free energy                 ...  -3412.53895415 Eh 
Thermal Enthalpy correction       ...      0.00094421 Eh       0.59 kcal/mol
-----------------------------------------------------------------------
Total Enthalpy                    ...  -3412.53800994 Eh


Note: Only C1 symmetry has been detected, increase convergence thresholds 
      if your molecule has a higher symmetry. Symmetry factor of 1.0 is   
      used for the rotational entropy correction. 
 

Note: Rotational entropy computed according to Herzberg 
Infrared and Raman Spectra, Chapter V,1, Van Nostrand Reinhold, 1945 
Point Group:  C1, Symmetry Number:   1  
Rotational constants in cm-1:     0.005023     0.004165     0.004058 

Vibrational entropy computed according to the QRRHO of S. Grimme
Chem.Eur.J. 2012 18 9955


-------
ENTROPY
-------

The entropy contributions are T*S = T*(S(el)+S(vib)+S(rot)+S(trans))
     S(el)   - electronic entropy
     S(vib)  - vibrational entropy
     S(rot)  - rotational entropy
     S(trans)- translational entropy
The entropies will be listed as multiplied by the temperature to get
units of energy

Electronic entropy                ...      0.00130891 Eh      0.82 kcal/mol
Vibrational entropy               ...      0.03731283 Eh     23.41 kcal/mol
Rotational entropy                ...      0.01719721 Eh     10.79 kcal/mol
Translational entropy             ...      0.02113028 Eh     13.26 kcal/mol
-----------------------------------------------------------------------
Final entropy term                ...      0.07694923 Eh     48.29 kcal/mol

In case the symmetry of your molecule has not been determined correctly
or in case you have a reason to use a different symmetry number we print 
out the resulting rotational entropy values for sn=1,12 :
 --------------------------------------------------------
|  sn= 1 | S(rot)=       0.01719721 Eh     10.79 kcal/mol|
|  sn= 2 | S(rot)=       0.01654276 Eh     10.38 kcal/mol|
|  sn= 3 | S(rot)=       0.01615992 Eh     10.14 kcal/mol|
|  sn= 4 | S(rot)=       0.01588830 Eh      9.97 kcal/mol|
|  sn= 5 | S(rot)=       0.01567761 Eh      9.84 kcal/mol|
|  sn= 6 | S(rot)=       0.01550547 Eh      9.73 kcal/mol|
|  sn= 7 | S(rot)=       0.01535992 Eh      9.64 kcal/mol|
|  sn= 8 | S(rot)=       0.01523384 Eh      9.56 kcal/mol|
|  sn= 9 | S(rot)=       0.01512264 Eh      9.49 kcal/mol|
|  sn=10 | S(rot)=       0.01502316 Eh      9.43 kcal/mol|
|  sn=11 | S(rot)=       0.01493317 Eh      9.37 kcal/mol|
|  sn=12 | S(rot)=       0.01485101 Eh      9.32 kcal/mol|
 --------------------------------------------------------


-------------------
GIBBS FREE ENERGY
-------------------

The Gibbs free energy is G = H - T*S

Total enthalpy                    ...  -3412.53800994 Eh 
Total entropy correction          ...     -0.07694923 Eh    -48.29 kcal/mol
-----------------------------------------------------------------------
Final Gibbs free energy         ...  -3412.61495917 Eh

For completeness - the Gibbs free energy minus the electronic energy
G-E(el)                           ...      0.23273515 Eh    146.04 kcal/mol


Timings for individual modules:

Sum of individual times         ...     3168.639 sec (=  52.811 min)
GTO integral calculation        ...        0.906 sec (=   0.015 min)   0.0 %
SCF iterations                  ...      168.533 sec (=   2.809 min)   5.3 %
Analytical frequency calculation...     2999.200 sec (=  49.987 min)  94.7 %
                             ****ORCA TERMINATED NORMALLY****
TOTAL RUN TIME: 0 days 0 hours 52 minutes 49 seconds 310 msec
