
                                 *****************
                                 * O   R   C   A *
                                 *****************

                                            #,                                       
                                            ###                                      
                                            ####                                     
                                            #####                                    
                                            ######                                   
                                           ########,                                 
                                     ,,################,,,,,                         
                               ,,#################################,,                 
                          ,,##########################################,,             
                       ,#########################################, ''#####,          
                    ,#############################################,,   '####,        
                  ,##################################################,,,,####,       
                ,###########''''           ''''###############################       
              ,#####''   ,,,,##########,,,,          '''####'''          '####       
            ,##' ,,,,###########################,,,                        '##       
           ' ,,###''''                  '''############,,,                           
         ,,##''                                '''############,,,,        ,,,,,,###''
      ,#''                                            '''#######################'''  
     '                                                          ''''####''''         
             ,#######,   #######,   ,#######,      ##                                
            ,#'     '#,  ##    ##  ,#'     '#,    #''#        ######   ,####,        
            ##       ##  ##   ,#'  ##            #'  '#       #        #'  '#        
            ##       ##  #######   ##           ,######,      #####,   #    #        
            '#,     ,#'  ##    ##  '#,     ,#' ,#      #,         ##   #,  ,#        
             '#######'   ##     ##  '#######'  #'      '#     #####' # '####'        



                  #######################################################
                  #                        -***-                        #
                  #          Department of theory and spectroscopy      #
                  #    Directorship and core code : Frank Neese         #
                  #        Max Planck Institute fuer Kohlenforschung    #
                  #                Kaiser Wilhelm Platz 1               #
                  #                 D-45470 Muelheim/Ruhr               #
                  #                      Germany                        #
                  #                                                     #
                  #                  All rights reserved                #
                  #                        -***-                        #
                  #######################################################


                         Program Version 5.0.4 -  RELEASE  -


 With contributions from (in alphabetic order):
   Daniel Aravena         : Magnetic Suceptibility
   Michael Atanasov       : Ab Initio Ligand Field Theory (pilot matlab implementation)
   Alexander A. Auer      : GIAO ZORA, VPT2 properties, NMR spectrum
   Ute Becker             : Parallelization
   Giovanni Bistoni       : ED, misc. LED, open-shell LED, HFLD
   Martin Brehm           : Molecular dynamics
   Dmytro Bykov           : SCF Hessian
   Vijay G. Chilkuri      : MRCI spin determinant printing, contributions to CSF-ICE
   Dipayan Datta          : RHF DLPNO-CCSD density
   Achintya Kumar Dutta   : EOM-CC, STEOM-CC
   Dmitry Ganyushin       : Spin-Orbit,Spin-Spin,Magnetic field MRCI
   Miquel Garcia          : C-PCM and meta-GGA Hessian, CC/C-PCM, Gaussian charge scheme
   Yang Guo               : DLPNO-NEVPT2, F12-NEVPT2, CIM, IAO-localization
   Andreas Hansen         : Spin unrestricted coupled pair/coupled cluster methods
   Benjamin Helmich-Paris : MC-RPA, TRAH-SCF, COSX integrals
   Lee Huntington         : MR-EOM, pCC
   Robert Izsak           : Overlap fitted RIJCOSX, COSX-SCS-MP3, EOM
   Marcus Kettner         : VPT2
   Christian Kollmar      : KDIIS, OOCD, Brueckner-CCSD(T), CCSD density, CASPT2, CASPT2-K
   Simone Kossmann        : Meta GGA functionals, TD-DFT gradient, OOMP2, MP2 Hessian
   Martin Krupicka        : Initial AUTO-CI
   Lucas Lang             : DCDCAS
   Marvin Lechner         : AUTO-CI (C++ implementation), FIC-MRCC
   Dagmar Lenk            : GEPOL surface, SMD
   Dimitrios Liakos       : Extrapolation schemes; Compound Job, initial MDCI parallelization
   Dimitrios Manganas     : Further ROCIS development; embedding schemes
   Dimitrios Pantazis     : SARC Basis sets
   Anastasios Papadopoulos: AUTO-CI, single reference methods and gradients
   Taras Petrenko         : DFT Hessian,TD-DFT gradient, ASA, ECA, R-Raman, ABS, FL, XAS/XES, NRVS
   Peter Pinski           : DLPNO-MP2, DLPNO-MP2 Gradient
   Christoph Reimann      : Effective Core Potentials
   Marius Retegan         : Local ZFS, SOC
   Christoph Riplinger    : Optimizer, TS searches, QM/MM, DLPNO-CCSD(T), (RO)-DLPNO pert. Triples
   Tobias Risthaus        : Range-separated hybrids, TD-DFT gradient, RPA, STAB
   Michael Roemelt        : Original ROCIS implementation
   Masaaki Saitow         : Open-shell DLPNO-CCSD energy and density
   Barbara Sandhoefer     : DKH picture change effects
   Avijit Sen             : IP-ROCIS
   Kantharuban Sivalingam : CASSCF convergence, NEVPT2, FIC-MRCI
   Bernardo de Souza      : ESD, SOC TD-DFT
   Georgi Stoychev        : AutoAux, RI-MP2 NMR, DLPNO-MP2 response
   Willem Van den Heuvel  : Paramagnetic NMR
   Boris Wezisla          : Elementary symmetry handling
   Frank Wennmohs         : Technical directorship


 We gratefully acknowledge several colleagues who have allowed us to
 interface, adapt or use parts of their codes:
   Stefan Grimme, W. Hujo, H. Kruse, P. Pracht,  : VdW corrections, initial TS optimization,
                  C. Bannwarth, S. Ehlert          DFT functionals, gCP, sTDA/sTD-DF
   Ed Valeev, F. Pavosevic, A. Kumar             : LibInt (2-el integral package), F12 methods
   Garnet Chan, S. Sharma, J. Yang, R. Olivares  : DMRG
   Ulf Ekstrom                                   : XCFun DFT Library
   Mihaly Kallay                                 : mrcc  (arbitrary order and MRCC methods)
   Jiri Pittner, Ondrej Demel                    : Mk-CCSD
   Frank Weinhold                                : gennbo (NPA and NBO analysis)
   Christopher J. Cramer and Donald G. Truhlar   : smd solvation model
   Lars Goerigk                                  : TD-DFT with DH, B97 family of functionals
   V. Asgeirsson, H. Jonsson                     : NEB implementation
   FAccTs GmbH                                   : IRC, NEB, NEB-TS, DLPNO-Multilevel, CI-OPT
                                                   MM, QMMM, 2- and 3-layer-ONIOM, Crystal-QMMM,
                                                   LR-CPCM, SF, NACMEs, symmetry and pop. for TD-DFT,
                                                   nearIR, NL-DFT gradient (VV10), updates on ESD,
                                                   ML-optimized integration grids
   S Lehtola, MJT Oliveira, MAL Marques          : LibXC Library
   Liviu Ungur et al                             : ANISO software


 Your calculation uses the libint2 library for the computation of 2-el integrals
 For citations please refer to: http://libint.valeyev.net

 Your ORCA version has been built with support for libXC version: 5.1.0
 For citations please refer to: https://tddft.org/programs/libxc/

 This ORCA versions uses:
   CBLAS   interface :  Fast vector & matrix operations
   LAPACKE interface :  Fast linear algebra routines
   SCALAPACK package :  Parallel linear algebra routines
   Shared memory     :  Shared parallel matrices
   BLAS/LAPACK       :  OpenBLAS 0.3.15  USE64BITINT DYNAMIC_ARCH NO_AFFINITY Zen SINGLE_THREADED
        Core in use  :  Zen
   Copyright (c) 2011-2014, The OpenBLAS Project


Your calculation utilizes the atom-pairwise dispersion correction
with the Becke-Johnson damping scheme (D3BJ)
Cite in your paper:
S.Grimme, S.Ehrlich, L.Goerigk, J Comput Chem, (2011), 32, 1456–1465 
S.Grimme, J.Antony, S.Ehrlich and H.Krieg, J.Chem.Phys., 132, (2010), 154104 
   

================================================================================

----- Orbital basis set information -----
Your calculation utilizes the basis: 6-31++G(d,p)
   H-He, Li-Ne : W. J. Hehre, R. Ditchfield and J.A. Pople, J. Chem. Phys. 56, 2257 (1972).
                 Note: He and Ne are unpublished basis sets taken from the Gaussian program.
                 Note: Li and B from J. D. Dill and J. A. Pople, J. Chem. Phys. 62, 2921 (1975).
   Na - Ar     : M. M. Francl, W. J. Pietro, W. J. Hehre, J. S. Binkley, M. S. Gordon, 
                 D. J. DeFrees and J. A. Pople, J. Chem. Phys. 77, 3654 (1982).
   K - Zn      : V. A. Rassolov, J. A. Pople, M. A. Ratner, and T. L. Windus, J. Chem. Phys. 109, 1223 (1998).
   Additional Pol./Diff. from the 6-311G equivalent.

----- AuxJ basis set information -----
Your calculation utilizes the auxiliary basis: def2/J
   F. Weigend, Phys. Chem. Chem. Phys. 8, 1057 (2006).

================================================================================
                                        WARNINGS
                       Please study these warnings very carefully!
================================================================================

WARNING: Old DensityContainer found on disk!
         Will remove this file - 
         If you want to keep old densities, please start your calculation with a different basename. 


WARNING: your system is open-shell and RHF/RKS was chosen
  ===> : WILL SWITCH to UHF/UKS


INFO   : the flag for use of the SHARK integral package has been found!

================================================================================
                                       INPUT FILE
================================================================================
NAME = picolinate_water_freq.inp
|  1> # avogadro generated ORCA file
|  2> # C18H14N3O7Cr | Geometry Optimization | B3LYP/6-31G(d)
|  3> # 
|  4> ! B3LYP D3BJ 6-31++G(d,p) FREQ
|  5> 
|  6> %maxcore 1024
|  7> 
|  8> %pal
|  9>    nprocs 16
| 10> end
| 11> 
| 12> * xyz 0 4
| 13>    Cr     5.124144    0.019342   -0.275194
| 14>    O      4.188469   -0.295367   -1.962747
| 15>    O      5.908982   -0.046445    1.527513
| 16>    O      6.557515    1.045677   -1.063844
| 17>    O      2.386419   -1.228039   -2.929779
| 18>    O      7.140470   -1.285030    2.927471
| 19>    O      7.248834    3.116690   -1.596108
| 20>    N      3.420866   -0.980436    0.429529
| 21>    N      6.276275   -1.685436   -0.458388
| 22>    N      4.323074    1.920638   -0.033100
| 23>    C      2.588144   -1.317322   -0.569771
| 24>    C      6.987997   -1.943010    0.649469
| 25>    C      5.143265    2.854122   -0.542028
| 26>    C      3.054734   -0.930290   -1.960565
| 27>    C      6.687484   -1.031890    1.819078
| 28>    C      6.443667    2.338185   -1.131119
| 29>    C      3.101696   -1.270235    1.697698
| 30>    C      6.455789   -2.413185   -1.562095
| 31>    C      3.158817    2.284950    0.511469
| 32>    C      1.392040   -1.972320   -0.333630
| 33>    C      7.913036   -2.970779    0.695171
| 34>    C      4.814206    4.199391   -0.525277
| 35>    C      1.916511   -1.922264    2.004198
| 36>    C      7.372040   -3.453172   -1.591687
| 37>    C      2.763524    3.610511    0.562404
| 38>    C      1.051175   -2.279689    0.976988
| 39>    C      8.109760   -3.734869   -0.447818
| 40>    C      3.604464    4.583319    0.032965
| 41>    H      3.797509   -0.974794    2.472080
| 42>    H      5.858729   -2.134097   -2.418929
| 43>    H      2.540401    1.494754    0.910969
| 44>    H      0.766288   -2.219679   -1.178312
| 45>    H      8.455001   -3.141101    1.613268
| 46>    H      5.515265    4.901511   -0.951392
| 47>    H      1.689265   -2.140531    3.037299
| 48>    H      7.503897   -4.023477   -2.499407
| 49>    H      1.814678    3.869569    1.008774
| 50>    H      0.122616   -2.789967    1.195298
| 51>    H      8.833102   -4.538827   -0.449587
| 52>    H      3.317804    5.625874    0.057932
| 53>    O      4.794869   -0.836436    4.463615
| 54>    H      4.896619   -1.348099    5.269224
| 55>    H      5.683307   -0.823525    4.063902
| 56> *
| 57> 
| 58> 
| 59> 
| 60>                          ****END OF INPUT****
================================================================================

                       ****************************
                       * Single Point Calculation *
                       ****************************

---------------------------------
CARTESIAN COORDINATES (ANGSTROEM)
---------------------------------
  Cr     5.124144    0.019342   -0.275194
  O      4.188469   -0.295367   -1.962747
  O      5.908982   -0.046445    1.527513
  O      6.557515    1.045677   -1.063844
  O      2.386419   -1.228039   -2.929779
  O      7.140470   -1.285030    2.927471
  O      7.248834    3.116690   -1.596108
  N      3.420866   -0.980436    0.429529
  N      6.276275   -1.685436   -0.458388
  N      4.323074    1.920638   -0.033100
  C      2.588144   -1.317322   -0.569771
  C      6.987997   -1.943010    0.649469
  C      5.143265    2.854122   -0.542028
  C      3.054734   -0.930290   -1.960565
  C      6.687484   -1.031890    1.819078
  C      6.443667    2.338185   -1.131119
  C      3.101696   -1.270235    1.697698
  C      6.455789   -2.413185   -1.562095
  C      3.158817    2.284950    0.511469
  C      1.392040   -1.972320   -0.333630
  C      7.913036   -2.970779    0.695171
  C      4.814206    4.199391   -0.525277
  C      1.916511   -1.922264    2.004198
  C      7.372040   -3.453172   -1.591687
  C      2.763524    3.610511    0.562404
  C      1.051175   -2.279689    0.976988
  C      8.109760   -3.734869   -0.447818
  C      3.604464    4.583319    0.032965
  H      3.797509   -0.974794    2.472080
  H      5.858729   -2.134097   -2.418929
  H      2.540401    1.494754    0.910969
  H      0.766288   -2.219679   -1.178312
  H      8.455001   -3.141101    1.613268
  H      5.515265    4.901511   -0.951392
  H      1.689265   -2.140531    3.037299
  H      7.503897   -4.023477   -2.499407
  H      1.814678    3.869569    1.008774
  H      0.122616   -2.789967    1.195298
  H      8.833102   -4.538827   -0.449587
  H      3.317804    5.625874    0.057932
  O      4.794869   -0.836436    4.463615
  H      4.896619   -1.348099    5.269224
  H      5.683307   -0.823525    4.063902

----------------------------
CARTESIAN COORDINATES (A.U.)
----------------------------
  NO LB      ZA    FRAG     MASS         X           Y           Z
   0 Cr   24.0000    0    52.000    9.683229    0.036551   -0.520041
   1 O     8.0000    0    15.999    7.915059   -0.558163   -3.709054
   2 O     8.0000    0    15.999   11.166358   -0.087768    2.886581
   3 O     8.0000    0    15.999   12.391907    1.976043   -2.010374
   4 O     8.0000    0    15.999    4.509678   -2.320657   -5.536480
   5 O     8.0000    0    15.999   13.493533   -2.428355    5.532118
   6 O     8.0000    0    15.999   13.698311    5.889691   -3.016207
   7 N     7.0000    0    14.007    6.464500   -1.852756    0.811692
   8 N     7.0000    0    14.007   11.860441   -3.185012   -0.866228
   9 N     7.0000    0    14.007    8.169426    3.629480   -0.062550
  10 C     6.0000    0    12.011    4.890883   -2.489378   -1.076711
  11 C     6.0000    0    12.011   13.205401   -3.671757    1.227319
  12 C     6.0000    0    12.011    9.719362    5.393509   -1.024284
  13 C     6.0000    0    12.011    5.772611   -1.757993   -3.704931
  14 C     6.0000    0    12.011   12.637513   -1.949990    3.437559
  15 C     6.0000    0    12.011   12.176766    4.418529   -2.137505
  16 C     6.0000    0    12.011    5.861356   -2.400396    3.208184
  17 C     6.0000    0    12.011   12.199673   -4.560259   -2.951932
  18 C     6.0000    0    12.011    5.969299    4.317930    0.966536
  19 C     6.0000    0    12.011    2.630574   -3.727145   -0.630469
  20 C     6.0000    0    12.011   14.953471   -5.613959    1.313683
  21 C     6.0000    0    12.011    9.097531    7.935699   -0.992630
  22 C     6.0000    0    12.011    3.621681   -3.632553    3.787385
  23 C     6.0000    0    12.011   13.931137   -6.525549   -3.007853
  24 C     6.0000    0    12.011    5.222304    6.822877    1.062790
  25 C     6.0000    0    12.011    1.986433   -4.307988    1.846240
  26 C     6.0000    0    12.011   15.325225   -7.057880   -0.846253
  27 C     6.0000    0    12.011    6.811450    8.661218    0.062295
  28 H     1.0000    0     1.008    7.176252   -1.842094    4.671554
  29 H     1.0000    0     1.008   11.071393   -4.032859   -4.571113
  30 H     1.0000    0     1.008    4.800662    2.824676    1.721482
  31 H     1.0000    0     1.008    1.448074   -4.194585   -2.226687
  32 H     1.0000    0     1.008   15.977636   -5.935821    3.048635
  33 H     1.0000    0     1.008   10.422340    9.262513   -1.797870
  34 H     1.0000    0     1.008    3.192248   -4.045017    5.739663
  35 H     1.0000    0     1.008   14.180310   -7.603270   -4.723195
  36 H     1.0000    0     1.008    3.429244    7.312426    1.906307
  37 H     1.0000    0     1.008    0.231711   -5.272274    2.258786
  38 H     1.0000    0     1.008   16.692144   -8.577140   -0.849596
  39 H     1.0000    0     1.008    6.269741   10.631361    0.109476
  40 O     8.0000    0    15.999    9.060989   -1.580635    8.435010
  41 H     1.0000    0     1.008    9.253269   -2.547538    9.957390
  42 H     1.0000    0     1.008   10.739894   -1.556237    7.679662

--------------------------------
INTERNAL COORDINATES (ANGSTROEM)
--------------------------------
 Cr     0   0   0     0.000000000000     0.00000000     0.00000000
 O      1   0   0     1.955086849251     0.00000000     0.00000000
 O      1   2   0     1.967244556089   167.55849427     0.00000000
 O      1   2   3     1.931290961602    95.06384649   148.03798563
 O      2   1   4     2.247757137928   145.26816685   181.56683910
 O      3   1   4     2.238423082916   144.20389602   263.75200857
 O      4   1   2     2.247292097531   144.56452210    91.90652423
 N      1   2   5     2.096985098015    79.89815507   357.31584738
 N      1   2   5     2.065728421667    93.29828074    91.94194959
 N      1   2   5     2.077317772839    93.63317393   263.06286782
 C      8   1   2     1.343695871944   111.89927883     0.00000000
 C      9   1   2     1.341730115638   112.39903836   188.12936702
 C     10   1   2     1.342800567441   110.88894584   266.64977473
 C      5   2   1     1.214362048164    27.58518663     3.40886135
 C      6   3   1     1.223850978774    27.80988267    11.84183795
 C      7   4   1     1.212674194924    27.54064063     0.23060278
 C      8   1   2     1.339442257756   127.94342621   181.23305329
 C      9   1   2     1.334171287746   126.76719780    15.16266642
 C     10   1   2     1.335953962962   129.28383455    85.43670778
 C     11   8   1     1.383997735078   121.82686999   180.76088960
 C     12   9   1     1.383508200802   121.63828498   185.76116587
 C     13  10   1     1.385030362065   121.70319918   178.64171454
 C     17   8   1     1.386992267847   120.96729792   178.86096658
 C     18   9   1     1.386349357714   121.04922237   172.78498267
 C     19  10   1     1.384183114619   121.66989828   181.62803761
 C     20  11   8     1.388662735264   118.54995955     0.27156098
 C     21  12   9     1.388869221488   118.43834183     0.80832681
 C     22  13  10     1.386546265478   118.75745412     0.00000000
 H     17   8   1     1.082177710625   117.72459243   359.10191873
 H     18   9   1     1.080988093783   116.14055298   353.51726059
 H     19  10   1     1.080022368968   116.76082768     1.65969722
 H     20  11   8     1.079925794446   118.40632189   180.20201004
 H     21  12   9     1.079647047103   118.74545503   180.42583065
 H     22  13  10     1.079828786941   118.19859914   180.08300078
 H     23  17   8     1.080082822753   119.08808026   180.03248368
 H     24  18   9     1.080087801928   119.65136735   180.40874788
 H     25  19  10     1.080123120751   119.71989135   179.90977772
 H     26  20  11     1.081787737897   120.36881254   179.91311527
 H     27  21  12     1.081469021327   120.33565414   179.32344529
 H     28  22  13     1.081535128747   120.49488120   180.20345362
 O     29  17   8     2.231609634768   160.54155163   193.79377494
 H     41  29  17     0.959769737463   139.76540260    24.01791641
 H     41  29  17     0.974299366793    92.42078498   140.42341629

---------------------------
INTERNAL COORDINATES (A.U.)
---------------------------
 Cr     0   0   0     0.000000000000     0.00000000     0.00000000
 O      1   0   0     3.694578713116     0.00000000     0.00000000
 O      1   2   0     3.717553449456   167.55849427     0.00000000
 O      1   2   3     3.649611002345    95.06384649   148.03798563
 O      2   1   4     4.247645406251   145.26816685   181.56683910
 O      3   1   4     4.230006598560   144.20389602   263.75200857
 O      4   1   2     4.246766607259   144.56452210    91.90652423
 N      1   2   5     3.962727542162    79.89815507   357.31584738
 N      1   2   5     3.903660984007    93.29828074    91.94194959
 N      1   2   5     3.925561683793    93.63317393   263.06286782
 C      8   1   2     2.539217205255   111.89927883     0.00000000
 C      9   1   2     2.535502464190   112.39903836   188.12936702
 C     10   1   2     2.537525324938   110.88894584   266.64977473
 C      5   2   1     2.294811698458    27.58518663     3.40886135
 C      6   3   1     2.312743178613    27.80988267    11.84183795
 C      7   4   1     2.291622118080    27.54064063     0.23060278
 C      8   1   2     2.531179039360   127.94342621   181.23305329
 C      9   1   2     2.521218349581   126.76719780    15.16266642
 C     10   1   2     2.524587117525   129.28383455    85.43670778
 C     11   8   1     2.615376689265   121.82686999   180.76088960
 C     12   9   1     2.614451603550   121.63828498   185.76116587
 C     13  10   1     2.617328071469   121.70319918   178.64171454
 C     17   8   1     2.621035536096   120.96729792   178.86096658
 C     18   9   1     2.619820612017   121.04922237   172.78498267
 C     19  10   1     2.615727005827   121.66989828   181.62803761
 C     20  11   8     2.624192262030   118.54995955     0.27156098
 C     21  12   9     2.624582464445   118.43834183     0.80832681
 C     22  13  10     2.620192713765   118.75745412     0.00000000
 H     17   8   1     2.045019501316   117.72459243   359.10191873
 H     18   9   1     2.042771451279   116.14055298   353.51726059
 H     19  10   1     2.040946495859   116.76082768     1.65969722
 H     20  11   8     2.040763996460   118.40632189   180.20201004
 H     21  12   9     2.040237240321   118.74545503   180.42583065
 H     22  13  10     2.040580678842   118.19859914   180.08300078
 H     23  17   8     2.041060736956   119.08808026   180.03248368
 H     24  18   9     2.041070146233   119.65136735   180.40874788
 H     25  19  10     2.041136889135   119.71989135   179.90977772
 H     26  20  11     2.044282559660   120.36881254   179.91311527
 H     27  21  12     2.043680272627   120.33565414   179.32344529
 H     28  22  13     2.043805197547   120.49488120   180.20345362
 O     29  17   8     4.217131047531   160.54155163   193.79377494
 H     41  29  17     1.813701955431   139.76540260    24.01791641
 H     41  29  17     1.841158975692    92.42078498   140.42341629

---------------------
BASIS SET INFORMATION
---------------------
There are 5 groups of distinct atoms

 Group   1 Type Cr  : 23s18p5d1f contracted to 6s6p3d1f pattern {666311/663111/311/1}
 Group   2 Type O   : 11s5p1d contracted to 4s3p1d pattern {6311/311/1}
 Group   3 Type N   : 11s5p1d contracted to 4s3p1d pattern {6311/311/1}
 Group   4 Type C   : 11s5p1d contracted to 4s3p1d pattern {6311/311/1}
 Group   5 Type H   : 5s1p contracted to 3s1p pattern {311/1}

Atom   0Cr   basis set group =>   1
Atom   1O    basis set group =>   2
Atom   2O    basis set group =>   2
Atom   3O    basis set group =>   2
Atom   4O    basis set group =>   2
Atom   5O    basis set group =>   2
Atom   6O    basis set group =>   2
Atom   7N    basis set group =>   3
Atom   8N    basis set group =>   3
Atom   9N    basis set group =>   3
Atom  10C    basis set group =>   4
Atom  11C    basis set group =>   4
Atom  12C    basis set group =>   4
Atom  13C    basis set group =>   4
Atom  14C    basis set group =>   4
Atom  15C    basis set group =>   4
Atom  16C    basis set group =>   4
Atom  17C    basis set group =>   4
Atom  18C    basis set group =>   4
Atom  19C    basis set group =>   4
Atom  20C    basis set group =>   4
Atom  21C    basis set group =>   4
Atom  22C    basis set group =>   4
Atom  23C    basis set group =>   4
Atom  24C    basis set group =>   4
Atom  25C    basis set group =>   4
Atom  26C    basis set group =>   4
Atom  27C    basis set group =>   4
Atom  28H    basis set group =>   5
Atom  29H    basis set group =>   5
Atom  30H    basis set group =>   5
Atom  31H    basis set group =>   5
Atom  32H    basis set group =>   5
Atom  33H    basis set group =>   5
Atom  34H    basis set group =>   5
Atom  35H    basis set group =>   5
Atom  36H    basis set group =>   5
Atom  37H    basis set group =>   5
Atom  38H    basis set group =>   5
Atom  39H    basis set group =>   5
Atom  40O    basis set group =>   2
Atom  41H    basis set group =>   5
Atom  42H    basis set group =>   5
---------------------------------
AUXILIARY/J BASIS SET INFORMATION
---------------------------------
There are 5 groups of distinct atoms

 Group   1 Type Cr  : 19s5p5d3f3g contracted to 8s5p5d2f3g pattern {121111111/11111/11111/21/111}
 Group   2 Type O   : 12s5p4d2f1g contracted to 6s4p3d1f1g pattern {711111/2111/211/2/1}
 Group   3 Type N   : 12s5p4d2f1g contracted to 6s4p3d1f1g pattern {711111/2111/211/2/1}
 Group   4 Type C   : 12s5p4d2f1g contracted to 6s4p3d1f1g pattern {711111/2111/211/2/1}
 Group   5 Type H   : 5s2p1d contracted to 3s1p1d pattern {311/2/1}

Atom   0Cr   basis set group =>   1
Atom   1O    basis set group =>   2
Atom   2O    basis set group =>   2
Atom   3O    basis set group =>   2
Atom   4O    basis set group =>   2
Atom   5O    basis set group =>   2
Atom   6O    basis set group =>   2
Atom   7N    basis set group =>   3
Atom   8N    basis set group =>   3
Atom   9N    basis set group =>   3
Atom  10C    basis set group =>   4
Atom  11C    basis set group =>   4
Atom  12C    basis set group =>   4
Atom  13C    basis set group =>   4
Atom  14C    basis set group =>   4
Atom  15C    basis set group =>   4
Atom  16C    basis set group =>   4
Atom  17C    basis set group =>   4
Atom  18C    basis set group =>   4
Atom  19C    basis set group =>   4
Atom  20C    basis set group =>   4
Atom  21C    basis set group =>   4
Atom  22C    basis set group =>   4
Atom  23C    basis set group =>   4
Atom  24C    basis set group =>   4
Atom  25C    basis set group =>   4
Atom  26C    basis set group =>   4
Atom  27C    basis set group =>   4
Atom  28H    basis set group =>   5
Atom  29H    basis set group =>   5
Atom  30H    basis set group =>   5
Atom  31H    basis set group =>   5
Atom  32H    basis set group =>   5
Atom  33H    basis set group =>   5
Atom  34H    basis set group =>   5
Atom  35H    basis set group =>   5
Atom  36H    basis set group =>   5
Atom  37H    basis set group =>   5
Atom  38H    basis set group =>   5
Atom  39H    basis set group =>   5
Atom  40O    basis set group =>   2
Atom  41H    basis set group =>   5
Atom  42H    basis set group =>   5

Checking for AutoStart:
The File: picolinate_water_freq.gbw exists
Trying to determine its content:
     ... Fine, the file contains calculation information
     ... Fine, the calculation information was read
     ... Fine, the file contains a basis set
     ... Fine, the basis set was read
     ... Fine, the file contains a geometry
     ... Fine, the geometry was read
     ... Fine, the file contains a set of orbitals
     ... Fine, the orbitals can be read
     => possible old guess file was deleted
     => GBW file was renamed to GES file
     => GES file is set as startup file
     => Guess is set to MORead
     ... now leaving AutoStart



           ************************************************************
           *        Program running with 16 parallel MPI-processes    *
           *              working on a common directory               *
           ************************************************************
------------------------------------------------------------------------------
                           ORCA GTO INTEGRAL CALCULATION
                           -- RI-GTO INTEGRALS CHOSEN --
------------------------------------------------------------------------------
------------------------------------------------------------------------------
                   ___                                                        
                  /   \      - P O W E R E D   B Y -                         
                 /     \                                                     
                 |  |  |   _    _      __       _____    __    __             
                 |  |  |  | |  | |    /  \     |  _  \  |  |  /  |          
                  \  \/   | |  | |   /    \    | | | |  |  | /  /          
                 / \  \   | |__| |  /  /\  \   | |_| |  |  |/  /          
                |  |  |   |  __  | /  /__\  \  |    /   |      \           
                |  |  |   | |  | | |   __   |  |    \   |  |\   \          
                \     /   | |  | | |  |  |  |  | |\  \  |  | \   \       
                 \___/    |_|  |_| |__|  |__|  |_| \__\ |__|  \__/        
                                                                              
                      - O R C A' S   B I G   F R I E N D -                    
                                      &                                       
                       - I N T E G R A L  F E E D E R -                       
                                                                              
 v1 FN, 2020, v2 2021                                                         
------------------------------------------------------------------------------


Reading SHARK input file picolinate_water_freq.SHARKINP.tmp ... ok
----------------------
SHARK INTEGRAL PACKAGE
----------------------

Number of atoms                             ...     43
Number of basis functions                   ...    634
Number of shells                            ...    296
Maximum angular momentum                    ...      3
Integral batch strategy                     ... SHARK/LIBINT Hybrid
RI-J (if used) integral strategy            ... SPLIT-RIJ (Revised 2003 algorithm where possible)
Printlevel                                  ...      1
Contraction scheme used                     ... SEGMENTED contraction
Coulomb Range Separation                    ... NOT USED
Exchange Range Separation                   ... NOT USED
Finite Nucleus Model                        ... NOT USED
Auxiliary Coulomb fitting basis             ... AVAILABLE
   # of basis functions in Aux-J            ...   1615
   # of shells in Aux-J                     ...    513
   Maximum angular momentum in Aux-J        ...      4
Auxiliary J/K fitting basis                 ... NOT available
Auxiliary Correlation fitting basis         ... NOT available
Auxiliary 'external' fitting basis          ... NOT available
Integral threshold                          ...     1.000000e-10
Primitive cut-off                           ...     1.000000e-11
Primitive pair pre-selection threshold      ...     1.000000e-11

Calculating pre-screening integrals         ... done (  0.0 sec) Dimension = 296
Organizing shell pair data                  ... done (  0.2 sec)
Shell pair information
Total number of shell pairs                 ...     43956
Shell pairs after pre-screening             ...     35344
Total number of primitive shell pairs       ...    185242
Primitive shell pairs kept                  ...     91790
          la=0 lb=0:  10254 shell pairs
          la=1 lb=0:  13858 shell pairs
          la=1 lb=1:   4725 shell pairs
          la=2 lb=0:   3490 shell pairs
          la=2 lb=1:   2475 shell pairs
          la=2 lb=2:    284 shell pairs
          la=3 lb=0:    136 shell pairs
          la=3 lb=1:     92 shell pairs
          la=3 lb=2:     29 shell pairs
          la=3 lb=3:      1 shell pairs

Calculating one electron integrals          ... done (  0.0 sec)
Calculating RI/J V-Matrix + Cholesky decomp.... done (  0.1 sec)
Calculating Nuclear repulsion               ... done (  0.0 sec) ENN=   3418.835426179362 Eh

SHARK setup successfully completed in   0.6 seconds

Maximum memory used throughout the entire GTOINT-calculation: 55.5 MB


           ************************************************************
           *        Program running with 16 parallel MPI-processes    *
           *              working on a common directory               *
           ************************************************************
-------------------------------------------------------------------------------
                                 ORCA SCF
-------------------------------------------------------------------------------

------------
SCF SETTINGS
------------
Hamiltonian:
 Density Functional     Method          .... DFT(GTOs)
 Exchange Functional    Exchange        .... B88
   X-Alpha parameter    XAlpha          ....  0.666667
   Becke's b parameter  XBeta           ....  0.004200
 Correlation Functional Correlation     .... LYP
 LDA part of GGA corr.  LDAOpt          .... VWN-5
 Gradients option       PostSCFGGA      .... off
 Hybrid DFT is turned on
   Fraction HF Exchange ScalHFX         ....  0.200000
   Scaling of DF-GGA-X  ScalDFX         ....  0.720000
   Scaling of DF-GGA-C  ScalDFC         ....  0.810000
   Scaling of DF-LDA-C  ScalLDAC        ....  1.000000
   Perturbative correction              ....  0.000000
   Density functional embedding theory  .... OFF
   NL short-range parameter             ....  4.800000
 RI-approximation to the Coulomb term is turned on
   Number of AuxJ basis functions       .... 1615
   RIJ-COSX (HFX calculated with COS-X)).... on


General Settings:
 Integral files         IntName         .... picolinate_water_freq
 Hartree-Fock type      HFTyp           .... UHF
 Total Charge           Charge          ....    0
 Multiplicity           Mult            ....    4
 Number of Electrons    NEL             ....  223
 Basis Dimension        Dim             ....  634
 Nuclear Repulsion      ENuc            ....   3418.8354261794 Eh

Convergence Acceleration:
 DIIS                   CNVDIIS         .... on
   Start iteration      DIISMaxIt       ....    12
   Startup error        DIISStart       ....  0.200000
   # of expansion vecs  DIISMaxEq       ....     5
   Bias factor          DIISBfac        ....   1.050
   Max. coefficient     DIISMaxC        ....  10.000
 Trust-Rad. Augm. Hess. CNVTRAH         .... auto
   Auto Start mean grad. ratio tolernc. ....  1.125000
   Auto Start start iteration           ....     1
   Auto Start num. interpolation iter.  ....    10
   Max. Number of Micro iterations      ....    16
   Max. Number of Macro iterations      .... Maxiter - #DIIS iter
   Number of Davidson start vectors     ....     2
   Converg. threshold I  (grad. norm)   ....   5.000e-05
   Converg. threshold II (energy diff.) ....   1.000e-06
   Grad. Scal. Fac. for Micro threshold ....   0.100
   Minimum threshold for Micro iter.    ....   0.010
   NR start threshold (gradient norm)   ....   0.001
   Initial trust radius                 ....   0.400
   Minimum AH scaling param. (alpha)    ....   1.000
   Maximum AH scaling param. (alpha)    .... 1000.000
   Orbital update algorithm             .... Taylor
   White noise on init. David. guess    .... on
   Maximum white noise                  ....   0.010
   Quad. conv. algorithm                .... NR
 SOSCF                  CNVSOSCF        .... off
 Level Shifting         CNVShift        .... on
   Level shift para.    LevelShift      ....    0.2500
   Turn off err/grad.   ShiftErr        ....    0.0010
 Zerner damping         CNVZerner       .... off
 Static damping         CNVDamp         .... on
   Fraction old density DampFac         ....    0.7000
   Max. Damping (<1)    DampMax         ....    0.9800
   Min. Damping (>=0)   DampMin         ....    0.0000
   Turn off err/grad.   DampErr         ....    0.1000
 Fernandez-Rico         CNVRico         .... off

SCF Procedure:
 Maximum # iterations   MaxIter         ....   125
 SCF integral mode      SCFMode         .... Direct
   Integral package                     .... SHARK and LIBINT hybrid scheme
 Reset frequency        DirectResetFreq ....    20
 Integral Threshold     Thresh          ....  1.000e-10 Eh
 Primitive CutOff       TCut            ....  1.000e-11 Eh

Convergence Tolerance:
 Convergence Check Mode ConvCheckMode   .... Total+1el-Energy
 Convergence forced     ConvForced      .... 0
 Energy Change          TolE            ....  1.000e-06 Eh
 1-El. energy change                    ....  1.000e-03 Eh
 DIIS Error             TolErr          ....  1.000e-06


Diagonalization of the overlap matrix:
Smallest eigenvalue                        ... 6.465e-07
Time for diagonalization                   ...    0.047 sec
Threshold for overlap eigenvalues          ... 1.000e-08
Number of eigenvalues below threshold      ... 0
Time for construction of square roots      ...    0.045 sec
Total time needed                          ...    0.099 sec

---------------------
INITIAL GUESS: MOREAD
---------------------
Guess MOs are being read from file: picolinate_water_freq.ges
Input Geometry matches current geometry (good)
Atom 0: N(Shells)= 16 and 18 - projection required
Input basis set needs projection
NBasis(read)= 1128
NBasis(calc)= 634
Basis set overlap was calculated
Using GuessMode=FMatrix for the initial guess
C*T matrix was formed
Effective Fockian was calculated
Effective Fockian was diagonalized
Initial density was built
C*T matrix was formed
Effective Fockian was calculated
Effective Fockian was diagonalized
Initial density was built
                      ------------------
                      INITIAL GUESS DONE (   0.5 sec)
                      ------------------
-------------------
DFT GRID GENERATION
-------------------

General Integration Accuracy     IntAcc      ... 4.388
Radial Grid Type                 RadialGrid  ... OptM3 with GC (2021)
Angular Grid (max. ang.)         AngularGrid ... 4 (Lebedev-302)
Angular grid pruning method      GridPruning ... 4 (adaptive)
Weight generation scheme         WeightScheme... Becke
Basis function cutoff            BFCut       ... 1.0000e-10
Integration weight cutoff        WCut        ... 1.0000e-14
Angular grids for H and He will be reduced by one unit
Partially contracted basis set               ... off
Rotationally invariant grid construction     ... off

Total number of grid points                  ...   232256
Total number of batches                      ...     3651
Average number of points per batch           ...       63
Average number of grid points per atom       ...     5401
Time for grid setup =    1.018 sec

--------------------
COSX GRID GENERATION
--------------------

GRIDX 1
-------
General Integration Accuracy     IntAcc      ... 3.816
Radial Grid Type                 RadialGrid  ... OptM3 with GC (2021)
Angular Grid (max. ang.)         AngularGrid ... 1 (Lebedev-50)
Angular grid pruning method      GridPruning ... 4 (adaptive)
Weight generation scheme         WeightScheme... Becke
Basis function cutoff            BFCut       ... 1.0000e-10
Integration weight cutoff        WCut        ... 1.0000e-14
Angular grids for H and He will be reduced by one unit
Partially contracted basis set               ... on
Rotationally invariant grid construction     ... off

Total number of grid points                  ...    28937
Total number of batches                      ...      476
Average number of points per batch           ...       60
Average number of grid points per atom       ...      673
UseSFitting                                  ... on

GRIDX 2
-------
General Integration Accuracy     IntAcc      ... 4.020
Radial Grid Type                 RadialGrid  ... OptM3 with GC (2021)
Angular Grid (max. ang.)         AngularGrid ... 2 (Lebedev-110)
Angular grid pruning method      GridPruning ... 4 (adaptive)
Weight generation scheme         WeightScheme... Becke
Basis function cutoff            BFCut       ... 1.0000e-10
Integration weight cutoff        WCut        ... 1.0000e-14
Angular grids for H and He will be reduced by one unit
Partially contracted basis set               ... on
Rotationally invariant grid construction     ... off

Total number of grid points                  ...    70150
Total number of batches                      ...     1118
Average number of points per batch           ...       62
Average number of grid points per atom       ...     1631
UseSFitting                                  ... on

GRIDX 3
-------
General Integration Accuracy     IntAcc      ... 4.338
Radial Grid Type                 RadialGrid  ... OptM3 with GC (2021)
Angular Grid (max. ang.)         AngularGrid ... 3 (Lebedev-194)
Angular grid pruning method      GridPruning ... 4 (adaptive)
Weight generation scheme         WeightScheme... Becke
Basis function cutoff            BFCut       ... 1.0000e-10
Integration weight cutoff        WCut        ... 1.0000e-14
Angular grids for H and He will be reduced by one unit
Partially contracted basis set               ... on
Rotationally invariant grid construction     ... off

Total number of grid points                  ...   153688
Total number of batches                      ...     2424
Average number of points per batch           ...       63
Average number of grid points per atom       ...     3574
UseSFitting                                  ... on

Time for X-Grid setup             =    1.334 sec

--------------
SCF ITERATIONS
--------------
ITER       Energy         Delta-E        Max-DP      RMS-DP      [F,P]     Damp
               ***  Starting incremental Fock matrix formation  ***
  0  -2429.0510732882   0.00000000000010.88348490  0.03930196  0.0080647 0.7000
  1  -2429.0531838525  -0.002110564350 7.87990823  0.03146365  0.0044002 0.7000
                               ***Turning on DIIS***
  2  -2429.0547395200  -0.00155566746316.41436559  0.07491777  0.0026334 0.0000
  3  -2429.0584971824  -0.003757662414 3.57956036  0.01331434  0.0009827 0.0000
               *** Restarting incremental Fock matrix formation ***
                                   *** Resetting DIIS ***
  4  -2429.0584969270   0.000000255361 2.82884731  0.00813708  0.0014643 0.0000
  5  -2429.0584851197   0.000011807280 0.86465560  0.00295440  0.0014819 0.0000
  6  -2429.0585323989  -0.000047279168 2.50451107  0.01019305  0.0004659 0.0000
  7  -2429.0585332242  -0.000000825278 2.64365345  0.00978064  0.0001426 0.0000
  8  -2429.0585298273   0.000003396900 1.71004758  0.00713414  0.0001416 0.0000
  9  -2429.0585272991   0.000002528154 0.52259631  0.00208889  0.0000343 0.0000
                 **** Energy Check signals convergence ****

               *****************************************************
               *                     SUCCESS                       *
               *           SCF CONVERGED AFTER  10 CYCLES          *
               *****************************************************

Old exchange energy                            =    -44.650686782 Eh
New exchange energy                            =    -44.650691702 Eh
Exchange energy change after final integration =     -0.000004920 Eh
Total energy after final integration           =  -2429.058532472 Eh
Final COS-X integration done in                =    14.296 sec

----------------
TOTAL SCF ENERGY
----------------

Total Energy       :        -2429.05853247 Eh          -66098.04303 eV

Components:
Nuclear Repulsion  :         3418.83542618 Eh           93031.24156 eV
Electronic Energy  :        -5847.89395865 Eh         -159129.28459 eV
One Electron Energy:       -10131.94548043 Eh         -275704.25306 eV
Two Electron Energy:         4284.05152178 Eh          116574.96846 eV
Max COSX asymmetry :            0.00003727 Eh               0.00101 eV

Virial components:
Potential Energy   :        -4847.85394261 Eh         -131916.81230 eV
Kinetic Energy     :         2418.79541014 Eh           65818.76927 eV
Virial Ratio       :            2.00424307


DFT components:
N(Alpha)           :      113.000117572004 electrons
N(Beta)            :      110.000112501191 electrons
N(Total)           :      223.000230073195 electrons
E(X)               :     -177.723234441633 Eh       
E(C)               :       -9.427530230774 Eh       
E(XC)              :     -187.150764672406 Eh       
DFET-embed. en.    :        0.000000000000 Eh       

---------------
SCF CONVERGENCE
---------------

  Last Energy change         ...   -2.5311e-07  Tolerance :   1.0000e-06
  Last MAX-Density change    ...    0.0000e+00  Tolerance :   1.0000e-05
  Last RMS-Density change    ...    0.0000e+00  Tolerance :   1.0000e-06
  Last DIIS Error            ...    9.4804e-06  Tolerance :   1.0000e-06

             **** THE GBW FILE WAS UPDATED (picolinate_water_freq.gbw) ****
             **** DENSITY picolinate_water_freq.scfp WAS UPDATED ****
             **** ENERGY FILE WAS UPDATED (picolinate_water_freq.en.tmp) ****
----------------------
UHF SPIN CONTAMINATION
----------------------

Warning: in a DFT calculation there is little theoretical justification to 
         calculate <S**2> as in Hartree-Fock theory. We will do it anyways
         but you should keep in mind that the values have only limited relevance

Expectation value of <S**2>     :     3.770530
Ideal value S*(S+1) for S=1.5   :     3.750000
Deviation                       :     0.020530

             **** THE GBW FILE WAS UPDATED (picolinate_water_freq.gbw) ****
             **** DENSITY picolinate_water_freq.scfp WAS UPDATED ****
----------------
ORBITAL ENERGIES
----------------
                 SPIN UP ORBITALS
  NO   OCC          E(Eh)            E(eV) 
   0   1.0000    -215.787982     -5871.8895 
   1   1.0000     -24.809967      -675.1135 
   2   1.0000     -21.099807      -574.1550 
   3   1.0000     -21.099003      -574.1331 
   4   1.0000     -21.098546      -574.1206 
   5   1.0000     -19.151195      -521.1305 
   6   1.0000     -19.144682      -520.9533 
   7   1.0000     -19.137219      -520.7502 
   8   1.0000     -19.136267      -520.7243 
   9   1.0000     -19.135524      -520.7041 
  10   1.0000     -19.124381      -520.4009 
  11   1.0000     -19.115077      -520.1477 
  12   1.0000     -14.399884      -391.8408 
  13   1.0000     -14.399676      -391.8351 
  14   1.0000     -14.398333      -391.7986 
  15   1.0000     -10.315377      -280.6957 
  16   1.0000     -10.306043      -280.4417 
  17   1.0000     -10.297681      -280.2142 
  18   1.0000     -10.263819      -279.2927 
  19   1.0000     -10.263663      -279.2885 
  20   1.0000     -10.262092      -279.2457 
  21   1.0000     -10.262083      -279.2455 
  22   1.0000     -10.257397      -279.1180 
  23   1.0000     -10.256383      -279.0904 
  24   1.0000     -10.242654      -278.7168 
  25   1.0000     -10.241996      -278.6989 
  26   1.0000     -10.238273      -278.5976 
  27   1.0000     -10.232957      -278.4529 
  28   1.0000     -10.231272      -278.4071 
  29   1.0000     -10.231203      -278.4052 
  30   1.0000     -10.229414      -278.3565 
  31   1.0000     -10.228823      -278.3404 
  32   1.0000     -10.223063      -278.1837 
  33   1.0000      -2.992401       -81.4274 
  34   1.0000      -1.940789       -52.8116 
  35   1.0000      -1.939042       -52.7640 
  36   1.0000      -1.938350       -52.7452 
  37   1.0000      -1.083131       -29.4735 
  38   1.0000      -1.072368       -29.1806 
  39   1.0000      -1.063620       -28.9426 
  40   1.0000      -1.005922       -27.3725 
  41   1.0000      -1.001109       -27.2416 
  42   1.0000      -0.997941       -27.1554 
  43   1.0000      -0.995332       -27.0843 
  44   1.0000      -0.990348       -26.9487 
  45   1.0000      -0.984094       -26.7786 
  46   1.0000      -0.976657       -26.5762 
  47   1.0000      -0.847318       -23.0567 
  48   1.0000      -0.846672       -23.0391 
  49   1.0000      -0.843885       -22.9633 
  50   1.0000      -0.813287       -22.1307 
  51   1.0000      -0.810369       -22.0513 
  52   1.0000      -0.808822       -22.0092 
  53   1.0000      -0.688826       -18.7439 
  54   1.0000      -0.685070       -18.6417 
  55   1.0000      -0.682929       -18.5835 
  56   1.0000      -0.673423       -18.3248 
  57   1.0000      -0.671623       -18.2758 
  58   1.0000      -0.670551       -18.2466 
  59   1.0000      -0.599655       -16.3175 
  60   1.0000      -0.594092       -16.1661 
  61   1.0000      -0.591279       -16.0895 
  62   1.0000      -0.550818       -14.9885 
  63   1.0000      -0.539101       -14.6697 
  64   1.0000      -0.535657       -14.5760 
  65   1.0000      -0.531754       -14.4698 
  66   1.0000      -0.527077       -14.3425 
  67   1.0000      -0.526539       -14.3279 
  68   1.0000      -0.516619       -14.0579 
  69   1.0000      -0.507987       -13.8230 
  70   1.0000      -0.498904       -13.5759 
  71   1.0000      -0.495300       -13.4778 
  72   1.0000      -0.482950       -13.1417 
  73   1.0000      -0.481357       -13.0984 
  74   1.0000      -0.478681       -13.0256 
  75   1.0000      -0.473426       -12.8826 
  76   1.0000      -0.467858       -12.7311 
  77   1.0000      -0.462863       -12.5951 
  78   1.0000      -0.461718       -12.5640 
  79   1.0000      -0.453971       -12.3532 
  80   1.0000      -0.451399       -12.2832 
  81   1.0000      -0.444659       -12.0998 
  82   1.0000      -0.434621       -11.8266 
  83   1.0000      -0.428221       -11.6525 
  84   1.0000      -0.424212       -11.5434 
  85   1.0000      -0.421056       -11.4575 
  86   1.0000      -0.413249       -11.2451 
  87   1.0000      -0.411638       -11.2012 
  88   1.0000      -0.409955       -11.1554 
  89   1.0000      -0.407953       -11.1010 
  90   1.0000      -0.377060       -10.2603 
  91   1.0000      -0.373422       -10.1613 
  92   1.0000      -0.360595        -9.8123 
  93   1.0000      -0.349722        -9.5164 
  94   1.0000      -0.346521        -9.4293 
  95   1.0000      -0.344338        -9.3699 
  96   1.0000      -0.342896        -9.3307 
  97   1.0000      -0.331244        -9.0136 
  98   1.0000      -0.326433        -8.8827 
  99   1.0000      -0.316336        -8.6079 
 100   1.0000      -0.312244        -8.4966 
 101   1.0000      -0.304490        -8.2856 
 102   1.0000      -0.302496        -8.2313 
 103   1.0000      -0.299723        -8.1559 
 104   1.0000      -0.297008        -8.0820 
 105   1.0000      -0.295707        -8.0466 
 106   1.0000      -0.286930        -7.8078 
 107   1.0000      -0.283130        -7.7044 
 108   1.0000      -0.274731        -7.4758 
 109   1.0000      -0.268032        -7.2935 
 110   1.0000      -0.261055        -7.1037 
 111   1.0000      -0.258161        -7.0249 
 112   1.0000      -0.247453        -6.7335 
 113   0.0000      -0.083750        -2.2790 
 114   0.0000      -0.083566        -2.2740 
 115   0.0000      -0.077641        -2.1127 
 116   0.0000      -0.064870        -1.7652 
 117   0.0000      -0.060342        -1.6420 
 118   0.0000      -0.055801        -1.5184 
 119   0.0000      -0.048805        -1.3281 
 120   0.0000      -0.037707        -1.0261 
 121   0.0000      -0.020853        -0.5674 
 122   0.0000      -0.012743        -0.3467 
 123   0.0000      -0.009147        -0.2489 
 124   0.0000      -0.000289        -0.0079 
 125   0.0000       0.010161         0.2765 
 126   0.0000       0.012407         0.3376 
 127   0.0000       0.016124         0.4388 
 128   0.0000       0.022904         0.6233 
 129   0.0000       0.027349         0.7442 
 130   0.0000       0.033005         0.8981 
 131   0.0000       0.033485         0.9112 
 132   0.0000       0.039293         1.0692 
 133   0.0000       0.040993         1.1155 
 134   0.0000       0.041563         1.1310 
 135   0.0000       0.046357         1.2615 
 136   0.0000       0.047596         1.2952 
 137   0.0000       0.048492         1.3195 
 138   0.0000       0.052660         1.4330 
 139   0.0000       0.057465         1.5637 
 140   0.0000       0.061779         1.6811 
 141   0.0000       0.063206         1.7199 
 142   0.0000       0.069132         1.8812 
 143   0.0000       0.072901         1.9837 
 144   0.0000       0.074176         2.0184 
 145   0.0000       0.080860         2.2003 
 146   0.0000       0.085236         2.3194 
 147   0.0000       0.088069         2.3965 
 148   0.0000       0.092844         2.5264 
 149   0.0000       0.095427         2.5967 
 150   0.0000       0.098231         2.6730 
 151   0.0000       0.100044         2.7223 
 152   0.0000       0.101088         2.7507 
 153   0.0000       0.104454         2.8423 
 154   0.0000       0.107730         2.9315 
 155   0.0000       0.110911         3.0180 
 156   0.0000       0.111061         3.0221 
 157   0.0000       0.113555         3.0900 
 158   0.0000       0.116564         3.1719 
 159   0.0000       0.116823         3.1789 
 160   0.0000       0.119566         3.2536 
 161   0.0000       0.120722         3.2850 
 162   0.0000       0.123241         3.3536 
 163   0.0000       0.123920         3.3720 
 164   0.0000       0.124450         3.3865 
 165   0.0000       0.126582         3.4445 
 166   0.0000       0.131340         3.5740 
 167   0.0000       0.133289         3.6270 
 168   0.0000       0.135743         3.6937 
 169   0.0000       0.138522         3.7694 
 170   0.0000       0.140771         3.8306 
 171   0.0000       0.141216         3.8427 
 172   0.0000       0.143254         3.8981 
 173   0.0000       0.147298         4.0082 
 174   0.0000       0.149806         4.0764 
 175   0.0000       0.150318         4.0904 
 176   0.0000       0.154645         4.2081 
 177   0.0000       0.158411         4.3106 
 178   0.0000       0.160963         4.3800 
 179   0.0000       0.163663         4.4535 
 180   0.0000       0.165057         4.4914 
 181   0.0000       0.169335         4.6078 
 182   0.0000       0.172143         4.6842 
 183   0.0000       0.177822         4.8388 
 184   0.0000       0.178895         4.8680 
 185   0.0000       0.182684         4.9711 
 186   0.0000       0.184826         5.0294 
 187   0.0000       0.186894         5.0856 
 188   0.0000       0.190503         5.1838 
 189   0.0000       0.192311         5.2330 
 190   0.0000       0.195183         5.3112 
 191   0.0000       0.196131         5.3370 
 192   0.0000       0.197091         5.3631 
 193   0.0000       0.202155         5.5009 
 194   0.0000       0.203419         5.5353 
 195   0.0000       0.206211         5.6113 
 196   0.0000       0.210164         5.7189 
 197   0.0000       0.211395         5.7523 
 198   0.0000       0.212275         5.7763 
 199   0.0000       0.215646         5.8680 
 200   0.0000       0.218625         5.9491 
 201   0.0000       0.220697         6.0055 
 202   0.0000       0.221985         6.0405 
 203   0.0000       0.226515         6.1638 
 204   0.0000       0.230244         6.2652 
 205   0.0000       0.232965         6.3393 
 206   0.0000       0.236118         6.4251 
 207   0.0000       0.237940         6.4747 
 208   0.0000       0.241252         6.5648 
 209   0.0000       0.242570         6.6007 
 210   0.0000       0.248349         6.7579 
 211   0.0000       0.249768         6.7965 
 212   0.0000       0.251913         6.8549 
 213   0.0000       0.256033         6.9670 
 214   0.0000       0.257676         7.0117 
 215   0.0000       0.260135         7.0786 
 216   0.0000       0.261570         7.1177 
 217   0.0000       0.263859         7.1800 
 218   0.0000       0.266471         7.2511 
 219   0.0000       0.268166         7.2972 
 220   0.0000       0.272632         7.4187 
 221   0.0000       0.276957         7.5364 
 222   0.0000       0.278237         7.5712 
 223   0.0000       0.279181         7.5969 
 224   0.0000       0.280831         7.6418 
 225   0.0000       0.283574         7.7165 
 226   0.0000       0.286801         7.8042 
 227   0.0000       0.289843         7.8870 
 228   0.0000       0.292429         7.9574 
 229   0.0000       0.295578         8.0431 
 230   0.0000       0.296253         8.0614 
 231   0.0000       0.298958         8.1351 
 232   0.0000       0.302680         8.2363 
 233   0.0000       0.309362         8.4182 
 234   0.0000       0.311518         8.4768 
 235   0.0000       0.313906         8.5418 
 236   0.0000       0.319543         8.6952 
 237   0.0000       0.321710         8.7542 
 238   0.0000       0.326580         8.8867 
 239   0.0000       0.328789         8.9468 
 240   0.0000       0.330286         8.9875 
 241   0.0000       0.335088         9.1182 
 242   0.0000       0.338307         9.2058 
 243   0.0000       0.341177         9.2839 
 244   0.0000       0.345489         9.4012 
 245   0.0000       0.347251         9.4492 
 246   0.0000       0.351358         9.5609 
 247   0.0000       0.353236         9.6120 
 248   0.0000       0.354776         9.6540 
 249   0.0000       0.355688         9.6788 
 250   0.0000       0.359862         9.7923 
 251   0.0000       0.360275         9.8036 
 252   0.0000       0.362607         9.8670 
 253   0.0000       0.366896         9.9838 
 254   0.0000       0.370275        10.0757 
 255   0.0000       0.372636        10.1399 
 256   0.0000       0.376270        10.2388 
 257   0.0000       0.379574        10.3287 
 258   0.0000       0.381238        10.3740 
 259   0.0000       0.387793        10.5524 
 260   0.0000       0.391822        10.6620 
 261   0.0000       0.395574        10.7641 
 262   0.0000       0.396877        10.7996 
 263   0.0000       0.398590        10.8462 
 264   0.0000       0.403354        10.9758 
 265   0.0000       0.407936        11.1005 
 266   0.0000       0.415020        11.2933 
 267   0.0000       0.418002        11.3744 
 268   0.0000       0.421955        11.4820 
 269   0.0000       0.425983        11.5916 
 270   0.0000       0.428697        11.6654 
 271   0.0000       0.430211        11.7066 
 272   0.0000       0.442929        12.0527 
 273   0.0000       0.444086        12.0842 
 274   0.0000       0.446251        12.1431 
 275   0.0000       0.453778        12.3479 
 276   0.0000       0.460921        12.5423 
 277   0.0000       0.466546        12.6954 
 278   0.0000       0.469680        12.7806 
 279   0.0000       0.471048        12.8179 
 280   0.0000       0.472832        12.8664 
 281   0.0000       0.476828        12.9752 
 282   0.0000       0.483366        13.1531 
 283   0.0000       0.491341        13.3701 
 284   0.0000       0.494362        13.4523 
 285   0.0000       0.503720        13.7069 
 286   0.0000       0.506125        13.7724 
 287   0.0000       0.508794        13.8450 
 288   0.0000       0.514958        14.0127 
 289   0.0000       0.518130        14.0990 
 290   0.0000       0.522375        14.2145 
 291   0.0000       0.530335        14.4311 
 292   0.0000       0.534979        14.5575 
 293   0.0000       0.539145        14.6709 
 294   0.0000       0.546060        14.8590 
 295   0.0000       0.562912        15.3176 
 296   0.0000       0.564357        15.3569 
 297   0.0000       0.574654        15.6371 
 298   0.0000       0.579899        15.7799 
 299   0.0000       0.585377        15.9289 
 300   0.0000       0.587985        15.9999 
 301   0.0000       0.599421        16.3111 
 302   0.0000       0.605754        16.4834 
 303   0.0000       0.612427        16.6650 
 304   0.0000       0.621931        16.9236 
 305   0.0000       0.628928        17.1140 
 306   0.0000       0.645857        17.5747 
 307   0.0000       0.657162        17.8823 
 308   0.0000       0.680274        18.5112 
 309   0.0000       0.687049        18.6955 
 310   0.0000       0.690707        18.7951 
 311   0.0000       0.693181        18.8624 
 312   0.0000       0.700132        19.0516 
 313   0.0000       0.710397        19.3309 
 314   0.0000       0.715484        19.4693 
 315   0.0000       0.721648        19.6370 
 316   0.0000       0.725853        19.7515 
 317   0.0000       0.730793        19.8859 
 318   0.0000       0.732822        19.9411 
 319   0.0000       0.738859        20.1054 
 320   0.0000       0.743545        20.2329 
 321   0.0000       0.746614        20.3164 
 322   0.0000       0.750505        20.4223 
 323   0.0000       0.756586        20.5878 
 324   0.0000       0.761422        20.7193 
 325   0.0000       0.769887        20.9497 
 326   0.0000       0.773972        21.0609 
 327   0.0000       0.777679        21.1617 
 328   0.0000       0.781857        21.2754 
 329   0.0000       0.797260        21.6946 
 330   0.0000       0.799071        21.7438 
 331   0.0000       0.810606        22.0577 
 332   0.0000       0.825109        22.4524 
 333   0.0000       0.833376        22.6773 
 334   0.0000       0.835845        22.7445 
 335   0.0000       0.859907        23.3992 
 336   0.0000       0.864507        23.5244 
 337   0.0000       0.882319        24.0091 
 338   0.0000       0.888295        24.1717 
 339   0.0000       0.890158        24.2224 
 340   0.0000       0.908182        24.7129 
 341   0.0000       0.919750        25.0277 
 342   0.0000       0.929167        25.2839 
 343   0.0000       0.929968        25.3057 
 344   0.0000       0.930543        25.3214 
 345   0.0000       0.936440        25.4818 
 346   0.0000       0.944173        25.6923 
 347   0.0000       0.947631        25.7864 
 348   0.0000       0.952883        25.9293 
 349   0.0000       0.962179        26.1822 
 350   0.0000       0.962815        26.1995 
 351   0.0000       0.975982        26.5578 
 352   0.0000       0.979593        26.6561 
 353   0.0000       0.979937        26.6655 
 354   0.0000       0.985401        26.8141 
 355   0.0000       0.992935        27.0191 
 356   0.0000       0.999065        27.1859 
 357   0.0000       1.011552        27.5257 
 358   0.0000       1.045383        28.4463 
 359   0.0000       1.049199        28.5502 
 360   0.0000       1.055614        28.7247 
 361   0.0000       1.060547        28.8590 
 362   0.0000       1.082031        29.4436 
 363   0.0000       1.088081        29.6082 
 364   0.0000       1.099865        29.9288 
 365   0.0000       1.104803        30.0632 
 366   0.0000       1.114324        30.3223 
 367   0.0000       1.116536        30.3825 
 368   0.0000       1.124340        30.5948 
 369   0.0000       1.134963        30.8839 
 370   0.0000       1.137959        30.9655 
 371   0.0000       1.146136        31.1879 
 372   0.0000       1.153601        31.3911 
 373   0.0000       1.160377        31.5755 
 374   0.0000       1.168456        31.7953 
 375   0.0000       1.169520        31.8242 
 376   0.0000       1.183277        32.1986 
 377   0.0000       1.189659        32.3723 
 378   0.0000       1.194350        32.4999 
 379   0.0000       1.202266        32.7153 
 380   0.0000       1.207541        32.8589 
 381   0.0000       1.215499        33.0754 
 382   0.0000       1.218460        33.1560 
 383   0.0000       1.220805        33.2198 
 384   0.0000       1.223245        33.2862 
 385   0.0000       1.240530        33.7565 
 386   0.0000       1.253977        34.1224 
 387   0.0000       1.256146        34.1815 
 388   0.0000       1.266825        34.4720 
 389   0.0000       1.275563        34.7098 
 390   0.0000       1.275865        34.7180 
 391   0.0000       1.289794        35.0971 
 392   0.0000       1.294016        35.2120 
 393   0.0000       1.309400        35.6306 
 394   0.0000       1.314190        35.7609 
 395   0.0000       1.317318        35.8460 
 396   0.0000       1.321382        35.9566 
 397   0.0000       1.322262        35.9806 
 398   0.0000       1.327277        36.1170 
 399   0.0000       1.337225        36.3877 
 400   0.0000       1.341496        36.5040 
 401   0.0000       1.343865        36.5684 
 402   0.0000       1.347066        36.6555 
 403   0.0000       1.348340        36.6902 
 404   0.0000       1.351350        36.7721 
 405   0.0000       1.357142        36.9297 
 406   0.0000       1.360096        37.0101 
 407   0.0000       1.370872        37.3033 
 408   0.0000       1.372544        37.3488 
 409   0.0000       1.374959        37.4145 
 410   0.0000       1.377649        37.4877 
 411   0.0000       1.382627        37.6232 
 412   0.0000       1.391531        37.8655 
 413   0.0000       1.393233        37.9118 
 414   0.0000       1.396638        38.0045 
 415   0.0000       1.399677        38.0871 
 416   0.0000       1.401554        38.1382 
 417   0.0000       1.408268        38.3209 
 418   0.0000       1.412249        38.4292 
 419   0.0000       1.420540        38.6549 
 420   0.0000       1.424515        38.7630 
 421   0.0000       1.427035        38.8316 
 422   0.0000       1.436904        39.1001 
 423   0.0000       1.442675        39.2572 
 424   0.0000       1.448450        39.4143 
 425   0.0000       1.449492        39.4427 
 426   0.0000       1.457180        39.6519 
 427   0.0000       1.467357        39.9288 
 428   0.0000       1.471726        40.0477 
 429   0.0000       1.484701        40.4008 
 430   0.0000       1.488824        40.5130 
 431   0.0000       1.489406        40.5288 
 432   0.0000       1.495013        40.6814 
 433   0.0000       1.496680        40.7267 
 434   0.0000       1.506483        40.9935 
 435   0.0000       1.525173        41.5021 
 436   0.0000       1.536206        41.8023 
 437   0.0000       1.540456        41.9179 
 438   0.0000       1.554378        42.2968 
 439   0.0000       1.564796        42.5803 
 440   0.0000       1.583879        43.0995 
 441   0.0000       1.587918        43.2094 
 442   0.0000       1.611226        43.8437 
 443   0.0000       1.620277        44.0900 
 444   0.0000       1.621553        44.1247 
 445   0.0000       1.639549        44.6144 
 446   0.0000       1.649596        44.8878 
 447   0.0000       1.662841        45.2482 
 448   0.0000       1.677151        45.6376 
 449   0.0000       1.701489        46.2999 
 450   0.0000       1.707674        46.4682 
 451   0.0000       1.720736        46.8236 
 452   0.0000       1.733994        47.1844 
 453   0.0000       1.753579        47.7173 
 454   0.0000       1.756614        47.7999 
 455   0.0000       1.762597        47.9627 
 456   0.0000       1.770982        48.1909 
 457   0.0000       1.775758        48.3208 
 458   0.0000       1.778735        48.4019 
 459   0.0000       1.783229        48.5241 
 460   0.0000       1.801903        49.0323 
 461   0.0000       1.806550        49.1587 
 462   0.0000       1.808800        49.2200 
 463   0.0000       1.823836        49.6291 
 464   0.0000       1.827959        49.7413 
 465   0.0000       1.834631        49.9228 
 466   0.0000       1.839504        50.0554 
 467   0.0000       1.847194        50.2647 
 468   0.0000       1.864694        50.7409 
 469   0.0000       1.875655        51.0392 
 470   0.0000       1.880558        51.1726 
 471   0.0000       1.886644        51.3382 
 472   0.0000       1.895929        51.5908 
 473   0.0000       1.899324        51.6832 
 474   0.0000       1.904846        51.8335 
 475   0.0000       1.917850        52.1874 
 476   0.0000       1.921355        52.2827 
 477   0.0000       1.926721        52.4287 
 478   0.0000       1.933795        52.6212 
 479   0.0000       1.937138        52.7122 
 480   0.0000       1.938851        52.7588 
 481   0.0000       1.948943        53.0334 
 482   0.0000       1.952320        53.1253 
 483   0.0000       1.957843        53.2756 
 484   0.0000       1.964875        53.4670 
 485   0.0000       1.968632        53.5692 
 486   0.0000       1.973371        53.6981 
 487   0.0000       1.975574        53.7581 
 488   0.0000       1.979056        53.8528 
 489   0.0000       1.986236        54.0482 
 490   0.0000       1.992985        54.2319 
 491   0.0000       2.004498        54.5452 
 492   0.0000       2.009896        54.6921 
 493   0.0000       2.014593        54.8199 
 494   0.0000       2.024504        55.0896 
 495   0.0000       2.038729        55.4766 
 496   0.0000       2.047718        55.7212 
 497   0.0000       2.053706        55.8842 
 498   0.0000       2.067640        56.2634 
 499   0.0000       2.070102        56.3303 
 500   0.0000       2.078893        56.5695 
 501   0.0000       2.088802        56.8392 
 502   0.0000       2.090421        56.8833 
 503   0.0000       2.098532        57.1040 
 504   0.0000       2.103767        57.2464 
 505   0.0000       2.115607        57.5686 
 506   0.0000       2.133799        58.0636 
 507   0.0000       2.140388        58.2429 
 508   0.0000       2.164815        58.9076 
 509   0.0000       2.168894        59.0186 
 510   0.0000       2.179999        59.3208 
 511   0.0000       2.186867        59.5077 
 512   0.0000       2.190237        59.5994 
 513   0.0000       2.197301        59.7916 
 514   0.0000       2.213666        60.2369 
 515   0.0000       2.218687        60.3735 
 516   0.0000       2.224310        60.5265 
 517   0.0000       2.236714        60.8641 
 518   0.0000       2.256881        61.4128 
 519   0.0000       2.268949        61.7412 
 520   0.0000       2.276704        61.9523 
 521   0.0000       2.279653        62.0325 
 522   0.0000       2.282212        62.1022 
 523   0.0000       2.289508        62.3007 
 524   0.0000       2.291708        62.3605 
 525   0.0000       2.294820        62.4452 
 526   0.0000       2.305120        62.7255 
 527   0.0000       2.317802        63.0706 
 528   0.0000       2.332952        63.4828 
 529   0.0000       2.336269        63.5731 
 530   0.0000       2.349945        63.9453 
 531   0.0000       2.355597        64.0990 
 532   0.0000       2.357738        64.1573 
 533   0.0000       2.359786        64.2130 
 534   0.0000       2.364496        64.3412 
 535   0.0000       2.370234        64.4973 
 536   0.0000       2.374160        64.6042 
 537   0.0000       2.378147        64.7127 
 538   0.0000       2.391687        65.0811 
 539   0.0000       2.403287        65.3968 
 540   0.0000       2.418490        65.8105 
 541   0.0000       2.428380        66.0796 
 542   0.0000       2.433277        66.2128 
 543   0.0000       2.435853        66.2829 
 544   0.0000       2.451066        66.6969 
 545   0.0000       2.474330        67.3299 
 546   0.0000       2.479560        67.4723 
 547   0.0000       2.498208        67.9797 
 548   0.0000       2.508862        68.2696 
 549   0.0000       2.513072        68.3842 
 550   0.0000       2.519013        68.5458 
 551   0.0000       2.521670        68.6181 
 552   0.0000       2.533853        68.9496 
 553   0.0000       2.539407        69.1008 
 554   0.0000       2.541521        69.1583 
 555   0.0000       2.546432        69.2919 
 556   0.0000       2.559811        69.6560 
 557   0.0000       2.563907        69.7674 
 558   0.0000       2.572508        70.0015 
 559   0.0000       2.577225        70.1299 
 560   0.0000       2.582654        70.2776 
 561   0.0000       2.590554        70.4925 
 562   0.0000       2.596823        70.6631 
 563   0.0000       2.610749        71.0421 
 564   0.0000       2.621775        71.3421 
 565   0.0000       2.627973        71.5108 
 566   0.0000       2.631606        71.6096 
 567   0.0000       2.633849        71.6707 
 568   0.0000       2.655410        72.2574 
 569   0.0000       2.663532        72.4784 
 570   0.0000       2.680748        72.9468 
 571   0.0000       2.690960        73.2247 
 572   0.0000       2.707129        73.6647 
 573   0.0000       2.708370        73.6985 
 574   0.0000       2.711609        73.7866 
 575   0.0000       2.724969        74.1502 
 576   0.0000       2.731921        74.3394 
 577   0.0000       2.744979        74.6947 
 578   0.0000       2.750007        74.8315 
 579   0.0000       2.755122        74.9707 
 580   0.0000       2.757435        75.0336 
 581   0.0000       2.763563        75.2004 
 582   0.0000       2.769878        75.3722 
 583   0.0000       2.798970        76.1639 
 584   0.0000       2.804781        76.3220 
 585   0.0000       2.813154        76.5498 
 586   0.0000       2.862075        77.8810 
 587   0.0000       2.867670        78.0333 
 588   0.0000       2.868474        78.0551 
 589   0.0000       2.875864        78.2562 
 590   0.0000       2.878002        78.3144 
 591   0.0000       2.904551        79.0368 
 592   0.0000       2.967338        80.7454 
 593   0.0000       2.985814        81.2481 
 594   0.0000       2.990859        81.3854 
 595   0.0000       3.013933        82.0133 
 596   0.0000       3.037465        82.6536 
 597   0.0000       3.043884        82.8283 
 598   0.0000       3.062146        83.3252 
 599   0.0000       3.076925        83.7274 
 600   0.0000       3.094066        84.1938 
 601   0.0000       3.100004        84.3554 
 602   0.0000       3.106637        84.5359 
 603   0.0000       3.121381        84.9371 
 604   0.0000       3.148299        85.6696 
 605   0.0000       3.159376        85.9710 
 606   0.0000       3.168963        86.2319 
 607   0.0000       3.191744        86.8518 
 608   0.0000       3.214958        87.4835 
 609   0.0000       3.220655        87.6385 
 610   0.0000       3.250902        88.4615 
 611   0.0000       3.255112        88.5761 
 612   0.0000       3.277522        89.1859 
 613   0.0000       3.284791        89.3837 
 614   0.0000       3.288862        89.4945 
 615   0.0000       3.294286        89.6421 
 616   0.0000       3.304260        89.9135 
 617   0.0000       3.314177        90.1833 
 618   0.0000       3.335381        90.7603 
 619   0.0000       3.340987        90.9129 
 620   0.0000       3.348883        91.1277 
 621   0.0000       3.370396        91.7131 
 622   0.0000       3.382317        92.0375 
 623   0.0000       3.382781        92.0502 
 624   0.0000       3.391288        92.2816 
 625   0.0000       3.443416        93.7001 
 626   0.0000       3.507706        95.4495 
 627   0.0000       3.534062        96.1667 
 628   0.0000       3.537361        96.2565 
 629   0.0000       3.552626        96.6719 
 630   0.0000       3.704111       100.7940 
 631   0.0000       3.904920       106.2583 
 632   0.0000       3.905542       106.2752 
 633   0.0000       3.907728       106.3347 

                 SPIN DOWN ORBITALS
  NO   OCC          E(Eh)            E(eV) 
   0   1.0000    -215.787353     -5871.8724 
   1   1.0000     -24.764827      -673.8852 
   2   1.0000     -21.062374      -573.1363 
   3   1.0000     -21.061575      -573.1146 
   4   1.0000     -21.059892      -573.0688 
   5   1.0000     -19.151024      -521.1259 
   6   1.0000     -19.144281      -520.9424 
   7   1.0000     -19.137011      -520.7446 
   8   1.0000     -19.136263      -520.7242 
   9   1.0000     -19.135177      -520.6946 
  10   1.0000     -19.123923      -520.3884 
  11   1.0000     -19.114688      -520.1371 
  12   1.0000     -14.400959      -391.8700 
  13   1.0000     -14.400643      -391.8614 
  14   1.0000     -14.399381      -391.8271 
  15   1.0000     -10.315239      -280.6919 
  16   1.0000     -10.305985      -280.4401 
  17   1.0000     -10.297569      -280.2111 
  18   1.0000     -10.263511      -279.2843 
  19   1.0000     -10.263371      -279.2805 
  20   1.0000     -10.261770      -279.2369 
  21   1.0000     -10.261760      -279.2367 
  22   1.0000     -10.257086      -279.1095 
  23   1.0000     -10.256070      -279.0818 
  24   1.0000     -10.242388      -278.7096 
  25   1.0000     -10.241738      -278.6919 
  26   1.0000     -10.238047      -278.5914 
  27   1.0000     -10.233115      -278.4572 
  28   1.0000     -10.231437      -278.4116 
  29   1.0000     -10.231340      -278.4089 
  30   1.0000     -10.229575      -278.3609 
  31   1.0000     -10.228988      -278.3449 
  32   1.0000     -10.223219      -278.1879 
  33   1.0000      -2.863311       -77.9147 
  34   1.0000      -1.805793       -49.1381 
  35   1.0000      -1.804367       -49.0993 
  36   1.0000      -1.800049       -48.9818 
  37   1.0000      -1.082430       -29.4544 
  38   1.0000      -1.071398       -29.1542 
  39   1.0000      -1.062839       -28.9213 
  40   1.0000      -1.006045       -27.3759 
  41   1.0000      -1.001421       -27.2501 
  42   1.0000      -0.998381       -27.1673 
  43   1.0000      -0.995357       -27.0851 
  44   1.0000      -0.989910       -26.9368 
  45   1.0000      -0.983066       -26.7506 
  46   1.0000      -0.975817       -26.5533 
  47   1.0000      -0.847366       -23.0580 
  48   1.0000      -0.846742       -23.0410 
  49   1.0000      -0.843980       -22.9659 
  50   1.0000      -0.812975       -22.1222 
  51   1.0000      -0.810052       -22.0426 
  52   1.0000      -0.808522       -22.0010 
  53   1.0000      -0.688684       -18.7401 
  54   1.0000      -0.684945       -18.6383 
  55   1.0000      -0.682765       -18.5790 
  56   1.0000      -0.673203       -18.3188 
  57   1.0000      -0.671417       -18.2702 
  58   1.0000      -0.670402       -18.2426 
  59   1.0000      -0.599269       -16.3069 
  60   1.0000      -0.593678       -16.1548 
  61   1.0000      -0.590814       -16.0769 
  62   1.0000      -0.549591       -14.9551 
  63   1.0000      -0.538821       -14.6621 
  64   1.0000      -0.535405       -14.5691 
  65   1.0000      -0.531015       -14.4496 
  66   1.0000      -0.526707       -14.3324 
  67   1.0000      -0.525890       -14.3102 
  68   1.0000      -0.516510       -14.0550 
  69   1.0000      -0.507101       -13.7989 
  70   1.0000      -0.497878       -13.5479 
  71   1.0000      -0.494980       -13.4691 
  72   1.0000      -0.482377       -13.1262 
  73   1.0000      -0.481019       -13.0892 
  74   1.0000      -0.477977       -13.0064 
  75   1.0000      -0.472107       -12.8467 
  76   1.0000      -0.466475       -12.6934 
  77   1.0000      -0.461239       -12.5510 
  78   1.0000      -0.459871       -12.5137 
  79   1.0000      -0.453503       -12.3404 
  80   1.0000      -0.450743       -12.2654 
  81   1.0000      -0.443809       -12.0767 
  82   1.0000      -0.433433       -11.7943 
  83   1.0000      -0.426702       -11.6112 
  84   1.0000      -0.422346       -11.4926 
  85   1.0000      -0.418659       -11.3923 
  86   1.0000      -0.412457       -11.2235 
  87   1.0000      -0.409963       -11.1557 
  88   1.0000      -0.408785       -11.1236 
  89   1.0000      -0.407680       -11.0935 
  90   1.0000      -0.376396       -10.2423 
  91   1.0000      -0.368768       -10.0347 
  92   1.0000      -0.356663        -9.7053 
  93   1.0000      -0.347063        -9.4441 
  94   1.0000      -0.338128        -9.2009 
  95   1.0000      -0.333539        -9.0761 
  96   1.0000      -0.331353        -9.0166 
[...]
 14:     76.52   0.000055    0.28  0.000225  (-0.003084  0.012733 -0.007330)
 15:     82.10   0.000641    3.24  0.002437  ( 0.004188  0.018675 -0.045502)
 16:     93.46   0.001878    9.49  0.006269  ( 0.019548 -0.004368 -0.076604)
 17:     96.91   0.000274    1.39  0.000883  (-0.003344  0.016872  0.024229)
 18:    142.17   0.000324    1.64  0.000710  (-0.017971  0.011737 -0.015802)
 19:    149.07   0.000137    0.69  0.000287  (-0.000650  0.005714  0.015950)
 20:    156.18   0.000050    0.25  0.000101  ( 0.001519 -0.009082  0.003992)
 21:    160.48   0.000503    2.54  0.000979  ( 0.031043  0.002507  0.002978)
 22:    172.88   0.000062    0.32  0.000113  ( 0.004291 -0.009627  0.001241)
 23:    181.48   0.000380    1.92  0.000653  ( 0.003227  0.009844 -0.023359)
 24:    188.02   0.000061    0.31  0.000102  ( 0.003253  0.009153  0.002743)
 25:    193.66   0.000071    0.36  0.000114  ( 0.010114 -0.000067 -0.003464)
 26:    214.42   0.000100    0.50  0.000145  (-0.001459 -0.008465 -0.008460)
 27:    232.26   0.000296    1.50  0.000398  (-0.012693 -0.014345  0.005531)
 28:    259.99   0.004097   20.70  0.004917  ( 0.054459 -0.040772 -0.017003)
 29:    267.39   0.014831   74.95  0.017309  ( 0.089014  0.052733 -0.081268)
 30:    282.89   0.002746   13.87  0.003029  ( 0.022530  0.048385 -0.013414)
 31:    299.16   0.004050   20.47  0.004225  (-0.015308 -0.061018  0.016344)
 32:    360.41   0.002432   12.29  0.002106  ( 0.028637 -0.030493 -0.018876)
 33:    380.22   0.008313   42.01  0.006823  (-0.008379  0.080067 -0.018494)
 34:    388.14   0.006121   30.94  0.004922  ( 0.067057  0.005957  0.019737)
 35:    410.14   0.000324    1.64  0.000247  ( 0.013895 -0.001230  0.007213)
 36:    415.15   0.000433    2.19  0.000325  (-0.007261 -0.016479  0.000928)
 37:    423.69   0.000488    2.46  0.000359  (-0.014010  0.012065 -0.004154)
 38:    446.40   0.000106    0.53  0.000074  ( 0.004444  0.004611  0.005743)
 39:    448.09   0.000406    2.05  0.000283  ( 0.001133  0.016717 -0.001386)
 40:    450.48   0.001248    6.31  0.000864  (-0.014807  0.021901  0.012863)
 41:    461.37   0.002114   10.68  0.001430  ( 0.006561  0.036880 -0.005137)
 42:    472.77   0.017014   85.98  0.011230  ( 0.047706 -0.049883  0.080413)
 43:    476.57   0.017721   89.56  0.011604  ( 0.084994  0.065224  0.011217)
 44:    540.40   0.000079    0.40  0.000046  (-0.001551 -0.006533  0.000800)
 45:    542.40   0.000359    1.82  0.000207  ( 0.006103  0.009583  0.008808)
 46:    546.93   0.000178    0.90  0.000101  ( 0.000980  0.000433 -0.010012)
 47:    604.38   0.041089  207.65  0.021216  (-0.005794 -0.061493 -0.131913)
 48:    667.56   0.002213   11.18  0.001034  (-0.026218 -0.011955  0.014287)
 49:    668.84   0.000709    3.59  0.000331  (-0.009734 -0.014714  0.004446)
 50:    672.39   0.005207   26.31  0.002417  ( 0.025199 -0.042207 -0.000283)
 51:    679.29   0.006398   32.34  0.002939  (-0.025079 -0.003931 -0.047907)
 52:    687.60   0.005049   25.51  0.002291  ( 0.045012 -0.016281 -0.000225)
 53:    697.74   0.013176   66.59  0.005893  (-0.022313 -0.071111 -0.018399)
 54:    719.75   0.001334    6.74  0.000579  ( 0.008235 -0.021007  0.008333)
 55:    726.37   0.004470   22.59  0.001920  (-0.042740 -0.008524  0.004567)
 56:    730.02   0.006762   34.17  0.002890  ( 0.005617 -0.002900 -0.053390)
 57:    756.40   0.005147   26.01  0.002124  (-0.019649 -0.005408 -0.041331)
 58:    759.25   0.005412   27.35  0.002224  (-0.040002 -0.020221  0.014677)
 59:    765.51   0.006004   30.34  0.002448  ( 0.014922 -0.047018 -0.003771)
 60:    814.21   0.000286    1.44  0.000109  ( 0.005268  0.000091  0.009040)
 61:    820.88   0.000762    3.85  0.000290  ( 0.000662  0.015821 -0.006244)
 62:    824.00   0.000879    4.44  0.000333  (-0.007992  0.011627  0.011562)
 63:    859.79   0.004739   23.95  0.001720  ( 0.030273  0.001907  0.028284)
 64:    864.01   0.013718   69.32  0.004955  ( 0.044921  0.013135 -0.052575)
 65:    869.29   0.008030   40.58  0.002883  ( 0.018270  0.014334  0.048408)
 66:    909.91   0.000333    1.68  0.000114  ( 0.004577  0.000389  0.009654)
 67:    917.50   0.000067    0.34  0.000023  (-0.003954 -0.001734  0.002053)
 68:    929.39   0.000017    0.09  0.000006  ( 0.001221 -0.001885  0.000868)
 69:    974.77   0.000002    0.01  0.000001  ( 0.000295  0.000339  0.000595)
 70:    994.86   0.000094    0.47  0.000029  (-0.003782 -0.002829  0.002654)
 71:   1013.84   0.000139    0.70  0.000043  ( 0.002994 -0.005518 -0.001837)
 72:   1014.25   0.000069    0.35  0.000021  (-0.002016 -0.000296 -0.004150)
 73:   1017.95   0.000019    0.10  0.000006  ( 0.002358  0.000432 -0.000285)
 74:   1041.60   0.000111    0.56  0.000033  (-0.001256  0.005178  0.002207)
 75:   1058.95   0.003286   16.60  0.000968  ( 0.024498  0.018505 -0.005063)
 76:   1061.92   0.002881   14.56  0.000847  ( 0.009164 -0.027614  0.000363)
 77:   1064.14   0.002230   11.27  0.000654  (-0.016854  0.019229  0.000084)
 78:   1078.29   0.005156   26.06  0.001492  ( 0.031180 -0.022674 -0.002448)
 79:   1081.63   0.004512   22.80  0.001302  (-0.010153  0.034560  0.002063)
 80:   1082.39   0.004468   22.58  0.001288  (-0.030618 -0.016202  0.009386)
 81:   1125.08   0.001781    9.00  0.000494  ( 0.010754  0.017863 -0.007701)
 82:   1126.57   0.003600   18.19  0.000997  (-0.016583  0.026744  0.002626)
 83:   1127.63   0.000473    2.39  0.000131  ( 0.000414 -0.011428  0.000291)
 84:   1175.89   0.000189    0.95  0.000050  ( 0.000785 -0.004189  0.005650)
 85:   1177.68   0.000369    1.86  0.000098  ( 0.008881 -0.000546 -0.004303)
 86:   1178.52   0.000355    1.80  0.000094  (-0.003722 -0.004122 -0.007951)
 87:   1200.68   0.009254   46.77  0.002405  (-0.034779 -0.031216 -0.014873)
 88:   1202.94   0.006582   33.26  0.001707  (-0.002239  0.038783 -0.014079)
 89:   1210.39   0.003391   17.13  0.000874  ( 0.018250 -0.013916  0.018639)
 90:   1309.78   0.000257    1.30  0.000061  (-0.000853 -0.003604 -0.006896)
 91:   1315.43   0.000152    0.77  0.000036  ( 0.003242 -0.004890  0.001282)
 92:   1315.96   0.003009   15.21  0.000714  (-0.026052 -0.000293  0.005890)
 93:   1336.30   0.062017  313.41  0.014483  (-0.065640 -0.096017  0.030902)
 94:   1345.50   0.076927  388.76  0.017842  (-0.091711  0.092557  0.029395)
 95:   1362.90   0.016324   82.49  0.003738  ( 0.021897 -0.056741 -0.006223)
 96:   1376.93   0.018822   95.12  0.004266  (-0.018613 -0.062554  0.002535)
 97:   1379.52   0.014700   74.29  0.003325  (-0.049225  0.029940  0.002438)
 98:   1399.76   0.035062  177.19  0.007817  ( 0.043734 -0.076811 -0.002018)
 99:   1488.34   0.002435   12.31  0.000511  ( 0.014746  0.000201  0.017119)
100:   1490.53   0.002714   13.72  0.000568  ( 0.015077  0.018346 -0.002088)
101:   1491.24   0.000698    3.53  0.000146  ( 0.008561 -0.007247  0.004495)
102:   1520.00   0.003185   16.09  0.000654  (-0.011892 -0.005360 -0.021993)
103:   1523.06   0.002445   12.36  0.000501  (-0.006859 -0.016100  0.013953)
104:   1524.13   0.002423   12.25  0.000496  (-0.016309  0.002339 -0.014989)
105:   1642.76   0.003026   15.29  0.000575  (-0.018569  0.002065 -0.015028)
106:   1644.38   0.001410    7.13  0.000268  (-0.009336 -0.011608  0.006762)
107:   1647.33   0.001931    9.76  0.000366  (-0.010858  0.004029 -0.015218)
108:   1648.83   0.007832   39.58  0.001482  ( 0.031028 -0.017516  0.014586)
109:   1677.05   0.009489   47.95  0.001766  (-0.038912 -0.012849 -0.009296)
110:   1680.28   0.007956   40.21  0.001478  (-0.020152  0.029232 -0.014728)
111:   1682.52   0.007474   37.77  0.001386  ( 0.000472 -0.037136  0.002634)
112:   1780.11   0.160096  809.06  0.028066  ( 0.065741 -0.057448  0.142981)
113:   1810.56   0.145875  737.19  0.025143  ( 0.114438  0.094602  0.055651)
114:   1825.27   0.066800  337.58  0.011421  (-0.038924 -0.073055  0.067591)
115:   3237.32   0.002661   13.45  0.000257  ( 0.014143  0.006018  0.004509)
116:   3240.01   0.001157    5.85  0.000111  ( 0.001459 -0.010443  0.000491)
117:   3240.87   0.001322    6.68  0.000127  ( 0.008112 -0.007698  0.001511)
118:   3245.96   0.008857   44.76  0.000851  ( 0.016629  0.002269  0.023871)
119:   3253.78   0.000164    0.83  0.000016  ( 0.002562 -0.001677  0.002513)
120:   3254.49   0.000244    1.23  0.000023  (-0.001535 -0.004438  0.001165)
121:   3265.07   0.000816    4.12  0.000078  ( 0.008063  0.003168  0.001707)
122:   3266.87   0.001140    5.76  0.000109  (-0.006026  0.007813  0.003403)
123:   3267.69   0.001006    5.09  0.000096  ( 0.008198 -0.003865 -0.003736)
124:   3270.61   0.000357    1.81  0.000034  ( 0.003200  0.001922 -0.004488)
125:   3272.83   0.000777    3.93  0.000074  ( 0.007564 -0.001759 -0.003712)
126:   3273.62   0.000374    1.89  0.000036  ( 0.001604 -0.003658 -0.004439)
127:   3659.73   0.085451  431.84  0.007286  (-0.050564  0.001753  0.068750)
128:   3945.88   0.015478   78.22  0.001224  ( 0.010545  0.009675 -0.031926)

* The epsilon (eps) is given for a Dirac delta lineshape.
** The dipole moment derivative (T) already includes vibrational overlap.

The first frequency considered to be a vibration is 12
The total number of vibrations considered is 117


--------------------------
THERMOCHEMISTRY AT 298.15K
--------------------------

Temperature         ... 298.15 K
Pressure            ... 1.00 atm
Total Mass          ... 436.32 AMU

Throughout the following assumptions are being made:
  (1) The electronic state is orbitally nondegenerate
      but the spin degeneracy is treated
  (2) There are no thermally accessible electronically excited states
  (3) Hindered rotations indicated by low frequency modes are not
      treated as such but are treated as vibrations and this may
      cause some error
  (4) All equations used are the standard statistical mechanics
      equations for an ideal gas
  (5) All vibrations are strictly harmonic

freq.       8.49  E(vib)   ...       0.58 
freq.      37.18  E(vib)   ...       0.54 
freq.      76.52  E(vib)   ...       0.49 
freq.      82.10  E(vib)   ...       0.48 
freq.      93.46  E(vib)   ...       0.47 
freq.      96.91  E(vib)   ...       0.46 
freq.     142.17  E(vib)   ...       0.41 
freq.     149.07  E(vib)   ...       0.40 
freq.     156.18  E(vib)   ...       0.40 
freq.     160.48  E(vib)   ...       0.39 
freq.     172.88  E(vib)   ...       0.38 
freq.     181.48  E(vib)   ...       0.37 
freq.     188.02  E(vib)   ...       0.36 
freq.     193.66  E(vib)   ...       0.36 
freq.     214.42  E(vib)   ...       0.34 
freq.     232.26  E(vib)   ...       0.32 
freq.     259.99  E(vib)   ...       0.30 
freq.     267.39  E(vib)   ...       0.29 
freq.     282.89  E(vib)   ...       0.28 
freq.     299.16  E(vib)   ...       0.26 
freq.     360.41  E(vib)   ...       0.22 
freq.     380.22  E(vib)   ...       0.21 
freq.     388.14  E(vib)   ...       0.20 
freq.     410.14  E(vib)   ...       0.19 
freq.     415.15  E(vib)   ...       0.19 
freq.     423.69  E(vib)   ...       0.18 
freq.     446.40  E(vib)   ...       0.17 
freq.     448.09  E(vib)   ...       0.17 
freq.     450.48  E(vib)   ...       0.17 
freq.     461.37  E(vib)   ...       0.16 
freq.     472.77  E(vib)   ...       0.15 
freq.     476.57  E(vib)   ...       0.15 
freq.     540.40  E(vib)   ...       0.12 
freq.     542.40  E(vib)   ...       0.12 
freq.     546.93  E(vib)   ...       0.12 
freq.     604.38  E(vib)   ...       0.10 
freq.     667.56  E(vib)   ...       0.08 
freq.     668.84  E(vib)   ...       0.08 
freq.     672.39  E(vib)   ...       0.08 
freq.     679.29  E(vib)   ...       0.08 
freq.     687.60  E(vib)   ...       0.07 
freq.     697.74  E(vib)   ...       0.07 
freq.     719.75  E(vib)   ...       0.07 
freq.     726.37  E(vib)   ...       0.06 
freq.     730.02  E(vib)   ...       0.06 
freq.     756.40  E(vib)   ...       0.06 
freq.     759.25  E(vib)   ...       0.06 
freq.     765.51  E(vib)   ...       0.06 
freq.     814.21  E(vib)   ...       0.05 
freq.     820.88  E(vib)   ...       0.05 
freq.     824.00  E(vib)   ...       0.05 
freq.     859.79  E(vib)   ...       0.04 
freq.     864.01  E(vib)   ...       0.04 
freq.     869.29  E(vib)   ...       0.04 
freq.     909.91  E(vib)   ...       0.03 
freq.     917.50  E(vib)   ...       0.03 
freq.     929.39  E(vib)   ...       0.03 
freq.     974.77  E(vib)   ...       0.03 
freq.     994.86  E(vib)   ...       0.02 
freq.    1013.84  E(vib)   ...       0.02 
freq.    1014.25  E(vib)   ...       0.02 
freq.    1017.95  E(vib)   ...       0.02 
freq.    1041.60  E(vib)   ...       0.02 
freq.    1058.95  E(vib)   ...       0.02 
freq.    1061.92  E(vib)   ...       0.02 
freq.    1064.14  E(vib)   ...       0.02 
freq.    1078.29  E(vib)   ...       0.02 
freq.    1081.63  E(vib)   ...       0.02 
freq.    1082.39  E(vib)   ...       0.02 
freq.    1125.08  E(vib)   ...       0.01 
freq.    1126.57  E(vib)   ...       0.01 
freq.    1127.63  E(vib)   ...       0.01 
freq.    1175.89  E(vib)   ...       0.01 
freq.    1177.68  E(vib)   ...       0.01 
freq.    1178.52  E(vib)   ...       0.01 
freq.    1200.68  E(vib)   ...       0.01 
freq.    1202.94  E(vib)   ...       0.01 
freq.    1210.39  E(vib)   ...       0.01 
freq.    1309.78  E(vib)   ...       0.01 
freq.    1315.43  E(vib)   ...       0.01 
freq.    1315.96  E(vib)   ...       0.01 
freq.    1336.30  E(vib)   ...       0.01 
freq.    1345.50  E(vib)   ...       0.01 
freq.    1362.90  E(vib)   ...       0.01 
freq.    1376.93  E(vib)   ...       0.01 
freq.    1379.52  E(vib)   ...       0.01 
freq.    1399.76  E(vib)   ...       0.00 
freq.    1488.34  E(vib)   ...       0.00 
freq.    1490.53  E(vib)   ...       0.00 
freq.    1491.24  E(vib)   ...       0.00 
freq.    1520.00  E(vib)   ...       0.00 
freq.    1523.06  E(vib)   ...       0.00 
freq.    1524.13  E(vib)   ...       0.00 
freq.    1642.76  E(vib)   ...       0.00 
freq.    1644.38  E(vib)   ...       0.00 
freq.    1647.33  E(vib)   ...       0.00 
freq.    1648.83  E(vib)   ...       0.00 
freq.    1677.05  E(vib)   ...       0.00 
freq.    1680.28  E(vib)   ...       0.00 
freq.    1682.52  E(vib)   ...       0.00 
freq.    1780.11  E(vib)   ...       0.00 
freq.    1810.56  E(vib)   ...       0.00 
freq.    1825.27  E(vib)   ...       0.00 
freq.    3237.32  E(vib)   ...       0.00 
freq.    3240.01  E(vib)   ...       0.00 
freq.    3240.87  E(vib)   ...       0.00 
freq.    3245.96  E(vib)   ...       0.00 
freq.    3253.78  E(vib)   ...       0.00 
freq.    3254.49  E(vib)   ...       0.00 
freq.    3265.07  E(vib)   ...       0.00 
freq.    3266.87  E(vib)   ...       0.00 
freq.    3267.69  E(vib)   ...       0.00 
freq.    3270.61  E(vib)   ...       0.00 
freq.    3272.83  E(vib)   ...       0.00 
freq.    3273.62  E(vib)   ...       0.00 
freq.    3659.73  E(vib)   ...       0.00 
freq.    3945.88  E(vib)   ...       0.00 

------------
INNER ENERGY
------------

The inner energy is: U= E(el) + E(ZPE) + E(vib) + E(rot) + E(trans)
    E(el)   - is the total energy from the electronic structure calculation
              = E(kin-el) + E(nuc-el) + E(el-el) + E(nuc-nuc)
    E(ZPE)  - the the zero temperature vibrational energy from the frequency calculation
    E(vib)  - the the finite temperature correction to E(ZPE) due to population
              of excited vibrational states
    E(rot)  - is the rotational thermal energy
    E(trans)- is the translational thermal energy

Summary of contributions to the inner energy U:
Electronic energy                ...  -2429.16853973 Eh
Zero point energy                ...      0.30738202 Eh     192.88 kcal/mol
Thermal vibrational correction   ...      0.01928923 Eh      12.10 kcal/mol
Thermal rotational correction    ...      0.00141627 Eh       0.89 kcal/mol
Thermal translational correction ...      0.00141627 Eh       0.89 kcal/mol
-----------------------------------------------------------------------
Total thermal energy                  -2428.83903594 Eh


Summary of corrections to the electronic energy:
(perhaps to be used in another calculation)
Total thermal correction                  0.02212177 Eh      13.88 kcal/mol
Non-thermal (ZPE) correction              0.30738202 Eh     192.88 kcal/mol
-----------------------------------------------------------------------
Total correction                          0.32950379 Eh     206.77 kcal/mol


--------
ENTHALPY
--------

The enthalpy is H = U + kB*T
                kB is Boltzmann's constant
Total free energy                 ...  -2428.83903594 Eh 
Thermal Enthalpy correction       ...      0.00094421 Eh       0.59 kcal/mol
-----------------------------------------------------------------------
Total Enthalpy                    ...  -2428.83809173 Eh


Note: Only C1 symmetry has been detected, increase convergence thresholds 
      if your molecule has a higher symmetry. Symmetry factor of 1.0 is   
      used for the rotational entropy correction. 
 

Note: Rotational entropy computed according to Herzberg 
Infrared and Raman Spectra, Chapter V,1, Van Nostrand Reinhold, 1945 
Point Group:  C1, Symmetry Number:   1  
Rotational constants in cm-1:     0.006308     0.005157     0.004484 

Vibrational entropy computed according to the QRRHO of S. Grimme
Chem.Eur.J. 2012 18 9955


-------
ENTROPY
-------

The entropy contributions are T*S = T*(S(el)+S(vib)+S(rot)+S(trans))
     S(el)   - electronic entropy
     S(vib)  - vibrational entropy
     S(rot)  - rotational entropy
     S(trans)- translational entropy
The entropies will be listed as multiplied by the temperature to get
units of energy

Electronic entropy                ...      0.00130891 Eh      0.82 kcal/mol
Vibrational entropy               ...      0.03385934 Eh     21.25 kcal/mol
Rotational entropy                ...      0.01694177 Eh     10.63 kcal/mol
Translational entropy             ...      0.02095771 Eh     13.15 kcal/mol
-----------------------------------------------------------------------
Final entropy term                ...      0.07306774 Eh     45.85 kcal/mol

In case the symmetry of your molecule has not been determined correctly
or in case you have a reason to use a different symmetry number we print 
out the resulting rotational entropy values for sn=1,12 :
 --------------------------------------------------------
|  sn= 1 | S(rot)=       0.01694177 Eh     10.63 kcal/mol|
|  sn= 2 | S(rot)=       0.01628731 Eh     10.22 kcal/mol|
|  sn= 3 | S(rot)=       0.01590448 Eh      9.98 kcal/mol|
|  sn= 4 | S(rot)=       0.01563286 Eh      9.81 kcal/mol|
|  sn= 5 | S(rot)=       0.01542217 Eh      9.68 kcal/mol|
|  sn= 6 | S(rot)=       0.01525003 Eh      9.57 kcal/mol|
|  sn= 7 | S(rot)=       0.01510448 Eh      9.48 kcal/mol|
|  sn= 8 | S(rot)=       0.01497840 Eh      9.40 kcal/mol|
|  sn= 9 | S(rot)=       0.01486719 Eh      9.33 kcal/mol|
|  sn=10 | S(rot)=       0.01476771 Eh      9.27 kcal/mol|
|  sn=11 | S(rot)=       0.01467772 Eh      9.21 kcal/mol|
|  sn=12 | S(rot)=       0.01459557 Eh      9.16 kcal/mol|
 --------------------------------------------------------


-------------------
GIBBS FREE ENERGY
-------------------

The Gibbs free energy is G = H - T*S

Total enthalpy                    ...  -2428.83809173 Eh 
Total entropy correction          ...     -0.07306774 Eh    -45.85 kcal/mol
-----------------------------------------------------------------------
Final Gibbs free energy         ...  -2428.91115947 Eh

For completeness - the Gibbs free energy minus the electronic energy
G-E(el)                           ...      0.25738027 Eh    161.51 kcal/mol


Timings for individual modules:

Sum of individual times         ...     2795.758 sec (=  46.596 min)
GTO integral calculation        ...        1.147 sec (=   0.019 min)   0.0 %
SCF iterations                  ...       96.554 sec (=   1.609 min)   3.5 %
Analytical frequency calculation...     2698.057 sec (=  44.968 min)  96.5 %
                             ****ORCA TERMINATED NORMALLY****
TOTAL RUN TIME: 0 days 0 hours 46 minutes 36 seconds 412 msec
