
                                 *****************
                                 * O   R   C   A *
                                 *****************

                                            #,                                       
                                            ###                                      
                                            ####                                     
                                            #####                                    
                                            ######                                   
                                           ########,                                 
                                     ,,################,,,,,                         
                               ,,#################################,,                 
                          ,,##########################################,,             
                       ,#########################################, ''#####,          
                    ,#############################################,,   '####,        
                  ,##################################################,,,,####,       
                ,###########''''           ''''###############################       
              ,#####''   ,,,,##########,,,,          '''####'''          '####       
            ,##' ,,,,###########################,,,                        '##       
           ' ,,###''''                  '''############,,,                           
         ,,##''                                '''############,,,,        ,,,,,,###''
      ,#''                                            '''#######################'''  
     '                                                          ''''####''''         
             ,#######,   #######,   ,#######,      ##                                
            ,#'     '#,  ##    ##  ,#'     '#,    #''#        ######   ,####,        
            ##       ##  ##   ,#'  ##            #'  '#       #        #'  '#        
            ##       ##  #######   ##           ,######,      #####,   #    #        
            '#,     ,#'  ##    ##  '#,     ,#' ,#      #,         ##   #,  ,#        
             '#######'   ##     ##  '#######'  #'      '#     #####' # '####'        



                  #######################################################
                  #                        -***-                        #
                  #          Department of theory and spectroscopy      #
                  #    Directorship and core code : Frank Neese         #
                  #        Max Planck Institute fuer Kohlenforschung    #
                  #                Kaiser Wilhelm Platz 1               #
                  #                 D-45470 Muelheim/Ruhr               #
                  #                      Germany                        #
                  #                                                     #
                  #                  All rights reserved                #
                  #                        -***-                        #
                  #######################################################


                         Program Version 5.0.4 -  RELEASE  -


 With contributions from (in alphabetic order):
   Daniel Aravena         : Magnetic Suceptibility
   Michael Atanasov       : Ab Initio Ligand Field Theory (pilot matlab implementation)
   Alexander A. Auer      : GIAO ZORA, VPT2 properties, NMR spectrum
   Ute Becker             : Parallelization
   Giovanni Bistoni       : ED, misc. LED, open-shell LED, HFLD
   Martin Brehm           : Molecular dynamics
   Dmytro Bykov           : SCF Hessian
   Vijay G. Chilkuri      : MRCI spin determinant printing, contributions to CSF-ICE
   Dipayan Datta          : RHF DLPNO-CCSD density
   Achintya Kumar Dutta   : EOM-CC, STEOM-CC
   Dmitry Ganyushin       : Spin-Orbit,Spin-Spin,Magnetic field MRCI
   Miquel Garcia          : C-PCM and meta-GGA Hessian, CC/C-PCM, Gaussian charge scheme
   Yang Guo               : DLPNO-NEVPT2, F12-NEVPT2, CIM, IAO-localization
   Andreas Hansen         : Spin unrestricted coupled pair/coupled cluster methods
   Benjamin Helmich-Paris : MC-RPA, TRAH-SCF, COSX integrals
   Lee Huntington         : MR-EOM, pCC
   Robert Izsak           : Overlap fitted RIJCOSX, COSX-SCS-MP3, EOM
   Marcus Kettner         : VPT2
   Christian Kollmar      : KDIIS, OOCD, Brueckner-CCSD(T), CCSD density, CASPT2, CASPT2-K
   Simone Kossmann        : Meta GGA functionals, TD-DFT gradient, OOMP2, MP2 Hessian
   Martin Krupicka        : Initial AUTO-CI
   Lucas Lang             : DCDCAS
   Marvin Lechner         : AUTO-CI (C++ implementation), FIC-MRCC
   Dagmar Lenk            : GEPOL surface, SMD
   Dimitrios Liakos       : Extrapolation schemes; Compound Job, initial MDCI parallelization
   Dimitrios Manganas     : Further ROCIS development; embedding schemes
   Dimitrios Pantazis     : SARC Basis sets
   Anastasios Papadopoulos: AUTO-CI, single reference methods and gradients
   Taras Petrenko         : DFT Hessian,TD-DFT gradient, ASA, ECA, R-Raman, ABS, FL, XAS/XES, NRVS
   Peter Pinski           : DLPNO-MP2, DLPNO-MP2 Gradient
   Christoph Reimann      : Effective Core Potentials
   Marius Retegan         : Local ZFS, SOC
   Christoph Riplinger    : Optimizer, TS searches, QM/MM, DLPNO-CCSD(T), (RO)-DLPNO pert. Triples
   Tobias Risthaus        : Range-separated hybrids, TD-DFT gradient, RPA, STAB
   Michael Roemelt        : Original ROCIS implementation
   Masaaki Saitow         : Open-shell DLPNO-CCSD energy and density
   Barbara Sandhoefer     : DKH picture change effects
   Avijit Sen             : IP-ROCIS
   Kantharuban Sivalingam : CASSCF convergence, NEVPT2, FIC-MRCI
   Bernardo de Souza      : ESD, SOC TD-DFT
   Georgi Stoychev        : AutoAux, RI-MP2 NMR, DLPNO-MP2 response
   Willem Van den Heuvel  : Paramagnetic NMR
   Boris Wezisla          : Elementary symmetry handling
   Frank Wennmohs         : Technical directorship


 We gratefully acknowledge several colleagues who have allowed us to
 interface, adapt or use parts of their codes:
   Stefan Grimme, W. Hujo, H. Kruse, P. Pracht,  : VdW corrections, initial TS optimization,
                  C. Bannwarth, S. Ehlert          DFT functionals, gCP, sTDA/sTD-DF
   Ed Valeev, F. Pavosevic, A. Kumar             : LibInt (2-el integral package), F12 methods
   Garnet Chan, S. Sharma, J. Yang, R. Olivares  : DMRG
   Ulf Ekstrom                                   : XCFun DFT Library
   Mihaly Kallay                                 : mrcc  (arbitrary order and MRCC methods)
   Jiri Pittner, Ondrej Demel                    : Mk-CCSD
   Frank Weinhold                                : gennbo (NPA and NBO analysis)
   Christopher J. Cramer and Donald G. Truhlar   : smd solvation model
   Lars Goerigk                                  : TD-DFT with DH, B97 family of functionals
   V. Asgeirsson, H. Jonsson                     : NEB implementation
   FAccTs GmbH                                   : IRC, NEB, NEB-TS, DLPNO-Multilevel, CI-OPT
                                                   MM, QMMM, 2- and 3-layer-ONIOM, Crystal-QMMM,
                                                   LR-CPCM, SF, NACMEs, symmetry and pop. for TD-DFT,
                                                   nearIR, NL-DFT gradient (VV10), updates on ESD,
                                                   ML-optimized integration grids
   S Lehtola, MJT Oliveira, MAL Marques          : LibXC Library
   Liviu Ungur et al                             : ANISO software


 Your calculation uses the libint2 library for the computation of 2-el integrals
 For citations please refer to: http://libint.valeyev.net

 Your ORCA version has been built with support for libXC version: 5.1.0
 For citations please refer to: https://tddft.org/programs/libxc/

 This ORCA versions uses:
   CBLAS   interface :  Fast vector & matrix operations
   LAPACKE interface :  Fast linear algebra routines
   SCALAPACK package :  Parallel linear algebra routines
   Shared memory     :  Shared parallel matrices
   BLAS/LAPACK       :  OpenBLAS 0.3.15  USE64BITINT DYNAMIC_ARCH NO_AFFINITY Zen SINGLE_THREADED
        Core in use  :  Zen
   Copyright (c) 2011-2014, The OpenBLAS Project


Your calculation utilizes the atom-pairwise dispersion correction
with the Becke-Johnson damping scheme (D3BJ)
Cite in your paper:
S.Grimme, S.Ehrlich, L.Goerigk, J Comput Chem, (2011), 32, 1456–1465 
S.Grimme, J.Antony, S.Ehrlich and H.Krieg, J.Chem.Phys., 132, (2010), 154104 
   

================================================================================

----- Orbital basis set information -----
Your calculation utilizes the basis: 6-31++G(d,p)
   H-He, Li-Ne : W. J. Hehre, R. Ditchfield and J.A. Pople, J. Chem. Phys. 56, 2257 (1972).
                 Note: He and Ne are unpublished basis sets taken from the Gaussian program.
                 Note: Li and B from J. D. Dill and J. A. Pople, J. Chem. Phys. 62, 2921 (1975).
   Na - Ar     : M. M. Francl, W. J. Pietro, W. J. Hehre, J. S. Binkley, M. S. Gordon, 
                 D. J. DeFrees and J. A. Pople, J. Chem. Phys. 77, 3654 (1982).
   K - Zn      : V. A. Rassolov, J. A. Pople, M. A. Ratner, and T. L. Windus, J. Chem. Phys. 109, 1223 (1998).
   Additional Pol./Diff. from the 6-311G equivalent.

----- AuxJ basis set information -----
Your calculation utilizes the auxiliary basis: def2/J
   F. Weigend, Phys. Chem. Chem. Phys. 8, 1057 (2006).

================================================================================
                                        WARNINGS
                       Please study these warnings very carefully!
================================================================================


WARNING: your system is open-shell and RHF/RKS was chosen
  ===> : WILL SWITCH to UHF/UKS


INFO   : the flag for use of the SHARK integral package has been found!

================================================================================
                                       INPUT FILE
================================================================================
NAME = picolinate_water_kcl_freq.inp
|  1> # avogadro generated ORCA file
|  2> # C18H14N3O7ClKCr | Geometry Optimization | B3LYP/6-31G(d)
|  3> # 
|  4> ! B3LYP D3BJ 6-31++G(d,p) FREQ
|  5> 
|  6> %maxcore 1024
|  7> 
|  8> %pal
|  9>    nprocs 16
| 10> end
| 11> 
| 12> * xyz 0 4
| 13>    Cr     5.141238    0.054729   -0.328969
| 14>    O      4.075429   -0.436290   -1.906562
| 15>    O      6.067396    0.189897    1.394284
| 16>    O      6.476869    1.032127   -1.340245
| 17>    O      2.230378   -1.507370   -2.617442
| 18>    O      7.424118   -0.889797    2.815084
| 19>    O      7.077828    3.060893   -2.100308
| 20>    N      3.526651   -0.892214    0.605451
| 21>    N      6.319194   -1.637716   -0.436525
| 22>    N      4.328396    1.961497   -0.181125
| 23>    C      2.622147   -1.338325   -0.285463
| 24>    C      7.112370   -1.774067    0.637860
| 25>    C      5.085845    2.860214   -0.830658
| 26>    C      2.964744   -1.089896   -1.742194
| 27>    C      6.888112   -0.752973    1.727500
| 28>    C      6.333563    2.311703   -1.500040
| 29>    C      3.314052   -1.057301    1.917910
| 30>    C      6.428539   -2.479086   -1.467522
| 31>    C      3.223232    2.359248    0.454851
| 32>    C      1.458670   -1.975815    0.109471
| 33>    C      8.050282   -2.786537    0.725969
| 34>    C      4.747318    4.203031   -0.874027
| 35>    C      2.166318   -1.687918    2.380766
| 36>    C      7.353937   -3.512341   -1.452367
| 37>    C      2.822842    3.685015    0.454593
| 38>    C      1.226775   -2.153172    1.468597
| 39>    C      8.174338   -3.667183   -0.340019
| 40>    C      3.596425    4.621420   -0.223796
| 41>    H      4.049077   -0.697861    2.630327
| 42>    H      5.765689   -2.297966   -2.302455
| 43>    H      2.659499    1.597179    0.972913
| 44>    H      0.773634   -2.314042   -0.654854
| 45>    H      8.655590   -2.857908    1.618374
| 46>    H      5.398217    4.875451   -1.414213
| 47>    H      2.040466   -1.813448    3.447473
| 48>    H      7.427292   -4.177621   -2.301003
| 49>    H      1.923557    3.972512    0.979534
| 50>    H      0.327249   -2.649713    1.810181
| 51>    H      8.904427   -4.464924   -0.307221
| 52>    H      3.304298    5.663266   -0.240419
| 53>    O      4.967558   -0.476206    4.367164
| 54>    H      4.988986   -1.044022    5.158122
| 55>    H      5.864356   -0.429651    4.021907
| 56>    K      3.525918   -3.713535    8.866296
| 57>    Cl     4.565627   -2.796810    6.529348
| 58> *
| 59> 
| 60> 
| 61> 
| 62>                          ****END OF INPUT****
================================================================================

                       ****************************
                       * Single Point Calculation *
                       ****************************

---------------------------------
CARTESIAN COORDINATES (ANGSTROEM)
---------------------------------
  Cr     5.141238    0.054729   -0.328969
  O      4.075429   -0.436290   -1.906562
  O      6.067396    0.189897    1.394284
  O      6.476869    1.032127   -1.340245
  O      2.230378   -1.507370   -2.617442
  O      7.424118   -0.889797    2.815084
  O      7.077828    3.060893   -2.100308
  N      3.526651   -0.892214    0.605451
  N      6.319194   -1.637716   -0.436525
  N      4.328396    1.961497   -0.181125
  C      2.622147   -1.338325   -0.285463
  C      7.112370   -1.774067    0.637860
  C      5.085845    2.860214   -0.830658
  C      2.964744   -1.089896   -1.742194
  C      6.888112   -0.752973    1.727500
  C      6.333563    2.311703   -1.500040
  C      3.314052   -1.057301    1.917910
  C      6.428539   -2.479086   -1.467522
  C      3.223232    2.359248    0.454851
  C      1.458670   -1.975815    0.109471
  C      8.050282   -2.786537    0.725969
  C      4.747318    4.203031   -0.874027
  C      2.166318   -1.687918    2.380766
  C      7.353937   -3.512341   -1.452367
  C      2.822842    3.685015    0.454593
  C      1.226775   -2.153172    1.468597
  C      8.174338   -3.667183   -0.340019
  C      3.596425    4.621420   -0.223796
  H      4.049077   -0.697861    2.630327
  H      5.765689   -2.297966   -2.302455
  H      2.659499    1.597179    0.972913
  H      0.773634   -2.314042   -0.654854
  H      8.655590   -2.857908    1.618374
  H      5.398217    4.875451   -1.414213
  H      2.040466   -1.813448    3.447473
  H      7.427292   -4.177621   -2.301003
  H      1.923557    3.972512    0.979534
  H      0.327249   -2.649713    1.810181
  H      8.904427   -4.464924   -0.307221
  H      3.304298    5.663266   -0.240419
  O      4.967558   -0.476206    4.367164
  H      4.988986   -1.044022    5.158122
  H      5.864356   -0.429651    4.021907
  K      3.525918   -3.713535    8.866296
  Cl     4.565627   -2.796810    6.529348

----------------------------
CARTESIAN COORDINATES (A.U.)
----------------------------
  NO LB      ZA    FRAG     MASS         X           Y           Z
   0 Cr   24.0000    0    52.000    9.715532    0.103423   -0.621661
   1 O     8.0000    0    15.999    7.701445   -0.824469   -3.602880
   2 O     8.0000    0    15.999   11.465717    0.358853    2.634815
   3 O     8.0000    0    15.999   12.239509    1.950437   -2.532696
   4 O     8.0000    0    15.999    4.214804   -2.848516   -4.946249
   5 O     8.0000    0    15.999   14.029550   -1.681473    5.319738
   6 O     8.0000    0    15.999   13.375157    5.784249   -3.969007
   7 N     7.0000    0    14.007    6.664405   -1.686040    1.144137
   8 N     7.0000    0    14.007   11.941546   -3.094835   -0.824913
   9 N     7.0000    0    14.007    8.179483    3.706692   -0.342277
  10 C     6.0000    0    12.011    4.955140   -2.529068   -0.539447
  11 C     6.0000    0    12.011   13.440431   -3.352501    1.205381
  12 C     6.0000    0    12.011    9.610854    5.405021   -1.569716
  13 C     6.0000    0    12.011    5.602554   -2.059605   -3.292270
  14 C     6.0000    0    12.011   13.016645   -1.422913    3.264502
  15 C     6.0000    0    12.011   11.968700    4.368486   -2.834665
  16 C     6.0000    0    12.011    6.262651   -1.998009    3.624325
  17 C     6.0000    0    12.011   12.148178   -4.684794   -2.773215
  18 C     6.0000    0    12.011    6.091026    4.458333    0.859544
  19 C     6.0000    0    12.011    2.756487   -3.733749    0.206870
  20 C     6.0000    0    12.011   15.212828   -5.265792    1.371883
  21 C     6.0000    0    12.011    8.971131    7.942578   -1.651672
  22 C     6.0000    0    12.011    4.093748   -3.189703    4.498996
  23 C     6.0000    0    12.011   13.896927   -6.637363   -2.744576
  24 C     6.0000    0    12.011    5.334398    6.963669    0.859056
  25 C     6.0000    0    12.011    2.318269   -4.068905    2.775246
  26 C     6.0000    0    12.011   15.447260   -6.929972   -0.642543
  27 C     6.0000    0    12.011    6.796258    8.733218   -0.422913
  28 H     1.0000    0     1.008    7.651647   -1.318766    4.970598
  29 H     1.0000    0     1.008   10.895573   -4.342526   -4.351009
  30 H     1.0000    0     1.008    5.025725    3.018231    1.838539
  31 H     1.0000    0     1.008    1.461956   -4.372906   -1.237495
  32 H     1.0000    0     1.008   16.356695   -5.400663    3.058284
  33 H     1.0000    0     1.008   10.201152    9.213267   -2.672475
  34 H     1.0000    0     1.008    3.855922   -3.426920    6.514780
  35 H     1.0000    0     1.008   14.035548   -7.894560   -4.348266
  36 H     1.0000    0     1.008    3.634996    7.506960    1.851051
  37 H     1.0000    0     1.008    0.618411   -5.007232    3.420746
  38 H     1.0000    0     1.008   16.826928   -8.437484   -0.580564
  39 H     1.0000    0     1.008    6.244218   10.702022   -0.454326
  40 O     8.0000    0    15.999    9.387324   -0.899899    8.252744
  41 H     1.0000    0     1.008    9.427817   -1.972916    9.747438
  42 H     1.0000    0     1.008   11.082027   -0.811923    7.600303
  43 K    19.0000    0    39.100    6.663019   -7.017564   16.754871
  44 Cl   17.0000    0    35.453    8.627785   -5.285205   12.338680

--------------------------------
INTERNAL COORDINATES (ANGSTROEM)
--------------------------------
 Cr     0   0   0     0.000000000000     0.00000000     0.00000000
 O      1   0   0     1.966176023781     0.00000000     0.00000000
 O      1   2   0     1.961030323885   168.04264509     0.00000000
 O      1   2   3     1.939560818005    94.63356146   149.12672887
 O      2   1   4     2.248727625436   144.82140922   180.87848244
 O      3   1   4     2.241674900364   144.05689594   262.43622304
 O      4   1   2     2.248274664361   144.59331295    93.29087717
 N      1   2   5     2.092064282525    80.03683906   356.22080085
 N      1   2   5     2.064828978172    93.59796131    90.98761535
 N      1   2   5     2.078060194298    94.25517200   262.20233142
 C      8   1   2     1.345685797552   111.90649720     0.08184723
 C      9   1   2     1.342394461551   112.24983321   188.59740931
 C     10   1   2     1.342875404414   111.04126228   266.41778724
 C      5   2   1     1.216403314750    27.59088925     4.81770916
 C      6   3   1     1.220189409915    27.77247708    12.86349671
 C      7   4   1     1.214717135036    27.45438867   359.78329686
 C      8   1   2     1.339776354117   128.00879506   181.53191916
 C      9   1   2     1.335220813174   127.11615531    14.52862625
 C     10   1   2     1.335686638951   129.10639946    87.11772692
 C     11   8   1     1.384212806611   121.92095807   181.20551381
 C     12   9   1     1.382945268810   121.74090831   184.70205677
 C     13  10   1     1.385510337522   121.73220124   180.00041512
 C     17   8   1     1.388958895065   120.89810943   178.50826527
 C     18   9   1     1.387157895646   121.03532513   173.93542918
 C     19  10   1     1.384908068051   121.61407020   179.85831962
 C     23  17   8     1.389695872458   119.46756073     0.00000000
 C     21  12   9     1.388257067187   118.43104856     0.81238775
 C     22  13  10     1.386507989927   118.72410592     0.17782947
 H     17   8   1     1.084894854866   119.66625707   358.25558210
 H     18   9   1     1.081336067737   116.13319599   354.46640715
 H     19  10   1     1.080246403324   116.74754810     0.11896745
 H     20  11   8     1.080677810659   118.36958781   180.21567581
 H     21  12   9     1.080684171500   118.73971640   180.70071030
 H     22  13  10     1.080564241125   118.13688513   180.05650899
 H     23  17   8     1.081415891622   118.52713619   179.12794242
 H     24  18   9     1.080815199246   119.68255074   180.31198921
 H     25  19  10     1.080245846886   119.69368409   180.01932028
 H     26  23  17     1.082764802906   120.53884146   179.83007186
 H     27  21  12     1.081894800711   120.31602922   179.44234646
 H     28  22  13     1.082154146124   120.49010294   180.08646005
 O     29  17   8     1.977205363880   158.23401951   193.48192169
 H     41  29  17     0.973903859118   131.16874374    23.34377777
 H     41  29  17     0.962089609588    97.07678640   143.94193045
 K     42  41  29     4.797647553132   160.98364479   306.94947778
 Cl    42  41  29     2.265338685252   159.81862081   359.73419576

---------------------------
INTERNAL COORDINATES (A.U.)
---------------------------
 Cr     0   0   0     0.000000000000     0.00000000     0.00000000
 O      1   0   0     3.715534216028     0.00000000     0.00000000
 O      1   2   0     3.705810252458   168.04264509     0.00000000
 O      1   2   3     3.665238766114    94.63356146   149.12672887
 O      2   1   4     4.249479361858   144.82140922   180.87848244
 O      3   1   4     4.236151642972   144.05689594   262.43622304
 O      4   1   2     4.248623389475   144.59331295    93.29087717
 N      1   2   5     3.953428548531    80.03683906   356.22080085
 N      1   2   5     3.901961282129    93.59796131    90.98761535
 N      1   2   5     3.926964657026    94.25517200   262.20233142
 C      8   1   2     2.542977619681   111.90649720     0.08184723
 C      9   1   2     2.536757896024   112.24983321   188.59740931
 C     10   1   2     2.537666746320   111.04126228   266.41778724
 C      5   2   1     2.298669133272    27.59088925     4.81770916
 C      6   3   1     2.305823816250    27.77247708    12.86349671
 C      7   4   1     2.295482715399    27.45438867   359.78329686
 C      8   1   2     2.531810389985   128.00879506   181.53191916
 C      9   1   2     2.523201665211   127.11615531    14.52862625
 C     10   1   2     2.524081948356   129.10639946    87.11772692
 C     11   8   1     2.615783115561   121.92095807   181.20551381
 C     12   9   1     2.613387816254   121.74090831   184.70205677
 C     13  10   1     2.618235093632   121.73220124   180.00041512
 C     17   8   1     2.624751922947   120.89810943   178.50826527
 C     18   9   1     2.621348527278   121.03532513   173.93542918
 C     19  10   1     2.617096969275   121.61407020   179.85831962
 C     23  17   8     2.626144608386   119.46756073     0.00000000
 C     21  12   9     2.623425660465   118.43104856     0.81238775
 C     22  13  10     2.620120383455   118.72410592     0.17782947
 H     17   8   1     2.050154159796   119.66625707   358.25558210
 H     18   9   1     2.043429026754   116.13319599   354.46640715
 H     19  10   1     2.041369859435   116.74754810     0.11896745
 H     20  11   8     2.042185101150   118.36958781   180.21567581
 H     21  12   9     2.042197121398   118.73971640   180.70071030
 H     22  13  10     2.041970485834   118.13688513   180.05650899
 H     23  17   8     2.043579872036   118.52713619   179.12794242
 H     24  18   9     2.042444727954   119.68255074   180.31198921
 H     25  19  10     2.041368807921   119.69368409   180.01932028
 H     26  23  17     2.046128944942   120.53884146   179.83007186
 H     27  21  12     2.044484879058   120.31602922   179.44234646
 H     28  22  13     2.044974970862   120.49010294   180.08646005
 O     29  17   8     3.736376648253   158.23401951   193.48192169
 H     41  29  17     1.840411574501   131.16874374    23.34377777
 H     41  29  17     1.818085878413    97.07678640   143.94193045
 K     42  41  29     9.066239962496   160.98364479   306.94947778
 Cl    42  41  29     4.280869715704   159.81862081   359.73419576

---------------------
BASIS SET INFORMATION
---------------------
There are 7 groups of distinct atoms

 Group   1 Type Cr  : 23s18p5d1f contracted to 6s6p3d1f pattern {666311/663111/311/1}
 Group   2 Type O   : 11s5p1d contracted to 4s3p1d pattern {6311/311/1}
 Group   3 Type N   : 11s5p1d contracted to 4s3p1d pattern {6311/311/1}
 Group   4 Type C   : 11s5p1d contracted to 4s3p1d pattern {6311/311/1}
 Group   5 Type H   : 5s1p contracted to 3s1p pattern {311/1}
 Group   6 Type K   : 23s17p1d contracted to 6s5p1d pattern {666311/66311/1}
 Group   7 Type Cl  : 17s11p1d contracted to 5s4p1d pattern {66311/6311/1}

Atom   0Cr   basis set group =>   1
Atom   1O    basis set group =>   2
Atom   2O    basis set group =>   2
Atom   3O    basis set group =>   2
Atom   4O    basis set group =>   2
Atom   5O    basis set group =>   2
Atom   6O    basis set group =>   2
Atom   7N    basis set group =>   3
Atom   8N    basis set group =>   3
Atom   9N    basis set group =>   3
Atom  10C    basis set group =>   4
Atom  11C    basis set group =>   4
Atom  12C    basis set group =>   4
Atom  13C    basis set group =>   4
Atom  14C    basis set group =>   4
Atom  15C    basis set group =>   4
Atom  16C    basis set group =>   4
Atom  17C    basis set group =>   4
Atom  18C    basis set group =>   4
Atom  19C    basis set group =>   4
Atom  20C    basis set group =>   4
Atom  21C    basis set group =>   4
Atom  22C    basis set group =>   4
Atom  23C    basis set group =>   4
Atom  24C    basis set group =>   4
Atom  25C    basis set group =>   4
Atom  26C    basis set group =>   4
Atom  27C    basis set group =>   4
Atom  28H    basis set group =>   5
Atom  29H    basis set group =>   5
Atom  30H    basis set group =>   5
Atom  31H    basis set group =>   5
Atom  32H    basis set group =>   5
Atom  33H    basis set group =>   5
Atom  34H    basis set group =>   5
Atom  35H    basis set group =>   5
Atom  36H    basis set group =>   5
Atom  37H    basis set group =>   5
Atom  38H    basis set group =>   5
Atom  39H    basis set group =>   5
Atom  40O    basis set group =>   2
Atom  41H    basis set group =>   5
Atom  42H    basis set group =>   5
Atom  43K    basis set group =>   6
Atom  44Cl   basis set group =>   7
---------------------------------
AUXILIARY/J BASIS SET INFORMATION
---------------------------------
There are 7 groups of distinct atoms

 Group   1 Type Cr  : 19s5p5d3f3g contracted to 8s5p5d2f3g pattern {121111111/11111/11111/21/111}
 Group   2 Type O   : 12s5p4d2f1g contracted to 6s4p3d1f1g pattern {711111/2111/211/2/1}
 Group   3 Type N   : 12s5p4d2f1g contracted to 6s4p3d1f1g pattern {711111/2111/211/2/1}
 Group   4 Type C   : 12s5p4d2f1g contracted to 6s4p3d1f1g pattern {711111/2111/211/2/1}
 Group   5 Type H   : 5s2p1d contracted to 3s1p1d pattern {311/2/1}
 Group   6 Type K   : 19s5p5d3f1g contracted to 8s4p4d1f1g pattern {121111111/2111/2111/3/1}
 Group   7 Type Cl  : 14s5p5d2f1g contracted to 8s4p3d1f1g pattern {71111111/2111/311/2/1}

Atom   0Cr   basis set group =>   1
Atom   1O    basis set group =>   2
Atom   2O    basis set group =>   2
Atom   3O    basis set group =>   2
Atom   4O    basis set group =>   2
Atom   5O    basis set group =>   2
Atom   6O    basis set group =>   2
Atom   7N    basis set group =>   3
Atom   8N    basis set group =>   3
Atom   9N    basis set group =>   3
Atom  10C    basis set group =>   4
Atom  11C    basis set group =>   4
Atom  12C    basis set group =>   4
Atom  13C    basis set group =>   4
Atom  14C    basis set group =>   4
Atom  15C    basis set group =>   4
Atom  16C    basis set group =>   4
Atom  17C    basis set group =>   4
Atom  18C    basis set group =>   4
Atom  19C    basis set group =>   4
Atom  20C    basis set group =>   4
Atom  21C    basis set group =>   4
Atom  22C    basis set group =>   4
Atom  23C    basis set group =>   4
Atom  24C    basis set group =>   4
Atom  25C    basis set group =>   4
Atom  26C    basis set group =>   4
Atom  27C    basis set group =>   4
Atom  28H    basis set group =>   5
Atom  29H    basis set group =>   5
Atom  30H    basis set group =>   5
Atom  31H    basis set group =>   5
Atom  32H    basis set group =>   5
Atom  33H    basis set group =>   5
Atom  34H    basis set group =>   5
Atom  35H    basis set group =>   5
Atom  36H    basis set group =>   5
Atom  37H    basis set group =>   5
Atom  38H    basis set group =>   5
Atom  39H    basis set group =>   5
Atom  40O    basis set group =>   2
Atom  41H    basis set group =>   5
Atom  42H    basis set group =>   5
Atom  43K    basis set group =>   6
Atom  44Cl   basis set group =>   7


           ************************************************************
           *        Program running with 16 parallel MPI-processes    *
           *              working on a common directory               *
           ************************************************************
------------------------------------------------------------------------------
                           ORCA GTO INTEGRAL CALCULATION
                           -- RI-GTO INTEGRALS CHOSEN --
------------------------------------------------------------------------------
------------------------------------------------------------------------------
                   ___                                                        
                  /   \      - P O W E R E D   B Y -                         
                 /     \                                                     
                 |  |  |   _    _      __       _____    __    __             
                 |  |  |  | |  | |    /  \     |  _  \  |  |  /  |          
                  \  \/   | |  | |   /    \    | | | |  |  | /  /          
                 / \  \   | |__| |  /  /\  \   | |_| |  |  |/  /          
                |  |  |   |  __  | /  /__\  \  |    /   |      \           
                |  |  |   | |  | | |   __   |  |    \   |  |\   \          
                \     /   | |  | | |  |  |  |  | |\  \  |  | \   \       
                 \___/    |_|  |_| |__|  |__|  |_| \__\ |__|  \__/        
                                                                              
                      - O R C A' S   B I G   F R I E N D -                    
                                      &                                       
                       - I N T E G R A L  F E E D E R -                       
                                                                              
 v1 FN, 2020, v2 2021                                                         
------------------------------------------------------------------------------


Reading SHARK input file picolinate_water_kcl_freq.SHARKINP.tmp ... ok
----------------------
SHARK INTEGRAL PACKAGE
----------------------

Number of atoms                             ...     45
Number of basis functions                   ...    682
Number of shells                            ...    318
Maximum angular momentum                    ...      3
Integral batch strategy                     ... SHARK/LIBINT Hybrid
RI-J (if used) integral strategy            ... SPLIT-RIJ (Revised 2003 algorithm where possible)
Printlevel                                  ...      1
Contraction scheme used                     ... SEGMENTED contraction
Coulomb Range Separation                    ... NOT USED
Exchange Range Separation                   ... NOT USED
Finite Nucleus Model                        ... NOT USED
Auxiliary Coulomb fitting basis             ... AVAILABLE
   # of basis functions in Aux-J            ...   1722
   # of shells in Aux-J                     ...    548
   Maximum angular momentum in Aux-J        ...      4
Auxiliary J/K fitting basis                 ... NOT available
Auxiliary Correlation fitting basis         ... NOT available
Auxiliary 'external' fitting basis          ... NOT available
Integral threshold                          ...     1.000000e-10
Primitive cut-off                           ...     1.000000e-11
Primitive pair pre-selection threshold      ...     1.000000e-11

Calculating pre-screening integrals         ... done (  0.0 sec) Dimension = 318
Organizing shell pair data                  ... done (  0.3 sec)
Shell pair information
Total number of shell pairs                 ...     50721
Shell pairs after pre-screening             ...     39616
Total number of primitive shell pairs       ...    230349
Primitive shell pairs kept                  ...    104413
          la=0 lb=0:  11398 shell pairs
          la=1 lb=0:  15666 shell pairs
          la=1 lb=1:   5441 shell pairs
          la=2 lb=0:   3806 shell pairs
          la=2 lb=1:   2745 shell pairs
          la=2 lb=2:    292 shell pairs
          la=3 lb=0:    141 shell pairs
          la=3 lb=1:     97 shell pairs
          la=3 lb=2:     29 shell pairs
          la=3 lb=3:      1 shell pairs

Calculating one electron integrals          ... done (  0.0 sec)
Calculating RI/J V-Matrix + Cholesky decomp.... done (  0.1 sec)
Calculating Nuclear repulsion               ... done (  0.0 sec) ENN=   4005.910987991073 Eh

SHARK setup successfully completed in   0.7 seconds

Maximum memory used throughout the entire GTOINT-calculation: 62.6 MB


           ************************************************************
           *        Program running with 16 parallel MPI-processes    *
           *              working on a common directory               *
           ************************************************************
-------------------------------------------------------------------------------
                                 ORCA SCF
-------------------------------------------------------------------------------

------------
SCF SETTINGS
------------
Hamiltonian:
 Density Functional     Method          .... DFT(GTOs)
 Exchange Functional    Exchange        .... B88
   X-Alpha parameter    XAlpha          ....  0.666667
   Becke's b parameter  XBeta           ....  0.004200
 Correlation Functional Correlation     .... LYP
 LDA part of GGA corr.  LDAOpt          .... VWN-5
 Gradients option       PostSCFGGA      .... off
 Hybrid DFT is turned on
   Fraction HF Exchange ScalHFX         ....  0.200000
   Scaling of DF-GGA-X  ScalDFX         ....  0.720000
   Scaling of DF-GGA-C  ScalDFC         ....  0.810000
   Scaling of DF-LDA-C  ScalLDAC        ....  1.000000
   Perturbative correction              ....  0.000000
   Density functional embedding theory  .... OFF
   NL short-range parameter             ....  4.800000
 RI-approximation to the Coulomb term is turned on
   Number of AuxJ basis functions       .... 1722
   RIJ-COSX (HFX calculated with COS-X)).... on


General Settings:
 Integral files         IntName         .... picolinate_water_kcl_freq
 Hartree-Fock type      HFTyp           .... UHF
 Total Charge           Charge          ....    0
 Multiplicity           Mult            ....    4
 Number of Electrons    NEL             ....  259
 Basis Dimension        Dim             ....  682
 Nuclear Repulsion      ENuc            ....   4005.9109879911 Eh

Convergence Acceleration:
 DIIS                   CNVDIIS         .... on
   Start iteration      DIISMaxIt       ....    12
   Startup error        DIISStart       ....  0.200000
   # of expansion vecs  DIISMaxEq       ....     5
   Bias factor          DIISBfac        ....   1.050
   Max. coefficient     DIISMaxC        ....  10.000
 Trust-Rad. Augm. Hess. CNVTRAH         .... auto
   Auto Start mean grad. ratio tolernc. ....  1.125000
   Auto Start start iteration           ....    20
   Auto Start num. interpolation iter.  ....    10
   Max. Number of Micro iterations      ....    16
   Max. Number of Macro iterations      .... Maxiter - #DIIS iter
   Number of Davidson start vectors     ....     2
   Converg. threshold I  (grad. norm)   ....   5.000e-05
   Converg. threshold II (energy diff.) ....   1.000e-06
   Grad. Scal. Fac. for Micro threshold ....   0.100
   Minimum threshold for Micro iter.    ....   0.010
   NR start threshold (gradient norm)   ....   0.001
   Initial trust radius                 ....   0.400
   Minimum AH scaling param. (alpha)    ....   1.000
   Maximum AH scaling param. (alpha)    .... 1000.000
   Orbital update algorithm             .... Taylor
   White noise on init. David. guess    .... on
   Maximum white noise                  ....   0.010
   Quad. conv. algorithm                .... NR
 SOSCF                  CNVSOSCF        .... off
 Level Shifting         CNVShift        .... on
   Level shift para.    LevelShift      ....    0.2500
   Turn off err/grad.   ShiftErr        ....    0.0010
 Zerner damping         CNVZerner       .... off
 Static damping         CNVDamp         .... on
   Fraction old density DampFac         ....    0.7000
   Max. Damping (<1)    DampMax         ....    0.9800
   Min. Damping (>=0)   DampMin         ....    0.0000
   Turn off err/grad.   DampErr         ....    0.1000
 Fernandez-Rico         CNVRico         .... off

SCF Procedure:
 Maximum # iterations   MaxIter         ....   125
 SCF integral mode      SCFMode         .... Direct
   Integral package                     .... SHARK and LIBINT hybrid scheme
 Reset frequency        DirectResetFreq ....    20
 Integral Threshold     Thresh          ....  1.000e-10 Eh
 Primitive CutOff       TCut            ....  1.000e-11 Eh

Convergence Tolerance:
 Convergence Check Mode ConvCheckMode   .... Total+1el-Energy
 Convergence forced     ConvForced      .... 0
 Energy Change          TolE            ....  1.000e-06 Eh
 1-El. energy change                    ....  1.000e-03 Eh
 DIIS Error             TolErr          ....  1.000e-06


Diagonalization of the overlap matrix:
Smallest eigenvalue                        ... 6.383e-07
Time for diagonalization                   ...    0.051 sec
Threshold for overlap eigenvalues          ... 1.000e-08
Number of eigenvalues below threshold      ... 0
Time for construction of square roots      ...    0.054 sec
Total time needed                          ...    0.108 sec

Time for model grid setup =    0.287 sec

------------------------------
INITIAL GUESS: MODEL POTENTIAL
------------------------------
Loading Hartree-Fock densities                     ... done
Calculating cut-offs                               ... done
Initializing the effective Hamiltonian             ... done
Setting up the integral package (SHARK)            ... done
Starting the Coulomb interaction                   ... done (   0.3 sec)
Reading the grid                                   ... done
Mapping shells                                     ... done
Starting the XC term evaluation                    ... done (   0.2 sec)
  promolecular density results
     # of electrons  =    258.982146546
     EX              =   -281.575620528
     EC              =     -9.546319429
     EX+EC           =   -291.121939957
Transforming the Hamiltonian                       ... done (   0.1 sec)
Diagonalizing the Hamiltonian                      ... done (   0.1 sec)
Back transforming the eigenvectors                 ... done (   0.0 sec)
Now organizing SCF variables                       ... done
                      ------------------
                      INITIAL GUESS DONE (   1.0 sec)
                      ------------------
-------------------
DFT GRID GENERATION
-------------------

General Integration Accuracy     IntAcc      ... 4.388
Radial Grid Type                 RadialGrid  ... OptM3 with GC (2021)
Angular Grid (max. ang.)         AngularGrid ... 4 (Lebedev-302)
Angular grid pruning method      GridPruning ... 4 (adaptive)
Weight generation scheme         WeightScheme... Becke
Basis function cutoff            BFCut       ... 1.0000e-10
Integration weight cutoff        WCut        ... 1.0000e-14
Angular grids for H and He will be reduced by one unit
Partially contracted basis set               ... off
Rotationally invariant grid construction     ... off

Total number of grid points                  ...   251120
Total number of batches                      ...     3947
Average number of points per batch           ...       63
Average number of grid points per atom       ...     5580
Time for grid setup =    1.220 sec

--------------------
COSX GRID GENERATION
--------------------

GRIDX 1
-------
General Integration Accuracy     IntAcc      ... 3.816
Radial Grid Type                 RadialGrid  ... OptM3 with GC (2021)
Angular Grid (max. ang.)         AngularGrid ... 1 (Lebedev-50)
Angular grid pruning method      GridPruning ... 4 (adaptive)
Weight generation scheme         WeightScheme... Becke
Basis function cutoff            BFCut       ... 1.0000e-10
Integration weight cutoff        WCut        ... 1.0000e-14
Angular grids for H and He will be reduced by one unit
Partially contracted basis set               ... on
Rotationally invariant grid construction     ... off

Total number of grid points                  ...    31109
Total number of batches                      ...      510
Average number of points per batch           ...       60
Average number of grid points per atom       ...      691
UseSFitting                                  ... on

GRIDX 2
-------
General Integration Accuracy     IntAcc      ... 4.020
Radial Grid Type                 RadialGrid  ... OptM3 with GC (2021)
Angular Grid (max. ang.)         AngularGrid ... 2 (Lebedev-110)
Angular grid pruning method      GridPruning ... 4 (adaptive)
Weight generation scheme         WeightScheme... Becke
Basis function cutoff            BFCut       ... 1.0000e-10
Integration weight cutoff        WCut        ... 1.0000e-14
Angular grids for H and He will be reduced by one unit
Partially contracted basis set               ... on
Rotationally invariant grid construction     ... off

Total number of grid points                  ...    75024
Total number of batches                      ...     1197
Average number of points per batch           ...       62
Average number of grid points per atom       ...     1667
UseSFitting                                  ... on

GRIDX 3
-------
General Integration Accuracy     IntAcc      ... 4.338
Radial Grid Type                 RadialGrid  ... OptM3 with GC (2021)
Angular Grid (max. ang.)         AngularGrid ... 3 (Lebedev-194)
Angular grid pruning method      GridPruning ... 4 (adaptive)
Weight generation scheme         WeightScheme... Becke
Basis function cutoff            BFCut       ... 1.0000e-10
Integration weight cutoff        WCut        ... 1.0000e-14
Angular grids for H and He will be reduced by one unit
Partially contracted basis set               ... on
Rotationally invariant grid construction     ... off

Total number of grid points                  ...   164889
Total number of batches                      ...     2596
Average number of points per batch           ...       63
Average number of grid points per atom       ...     3664
UseSFitting                                  ... on

Time for X-Grid setup             =    1.490 sec

--------------
SCF ITERATIONS
--------------
ITER       Energy         Delta-E        Max-DP      RMS-DP      [F,P]     Damp
               ***  Starting incremental Fock matrix formation  ***
  0  -3487.8055604926   0.000000000000149.30308024  0.27149648  0.1852670 0.7000
  1  -3487.6632133699   0.14234712275550.51688131  0.09118624  0.1878225 0.7000
                               ***Turning on DIIS***
  2  -3488.1591977689  -0.49598439901283.63353353  0.16820946  0.0287701 0.0000
  3  -3488.9835078100  -0.82431004108116.71853422  0.02818200  0.0294702 0.0000
  4  -3489.0208080961  -0.03730028613926.57764572  0.05014561  0.0557844 0.0000
  5  -3489.0812171376  -0.060409041463 8.07236954  0.01573592  0.0113862 0.0000
  6  -3489.0930040043  -0.011786866711 6.75993382  0.01218724  0.0093415 0.0000
  7  -3489.0978935589  -0.004889554618 3.96520897  0.00759286  0.0050619 0.0000
  8  -3489.0995920498  -0.001698490896 2.88711955  0.00719632  0.0023883 0.0000
  9  -3489.1001792581  -0.000587208338 1.91392484  0.00622816  0.0014958 0.0000
 10  -3489.1004302346  -0.000250976449 2.25981081  0.00806158  0.0010942 0.0000
 11  -3489.1005345667  -0.000104332124 3.66602065  0.01061929  0.0005818 0.0000
               *** Restarting incremental Fock matrix formation ***
                                   *** Resetting DIIS ***
 12  -3489.1006461597  -0.000111593009 3.95346786  0.01059486  0.0001834 0.0000
 13  -3489.1006462569  -0.000000097248 1.91357906  0.00392957  0.0004070 0.0000
 14  -3489.1006502855  -0.000004028562 0.52749015  0.00247867  0.0001701 0.0000
 15  -3489.1006507052  -0.000000419693 2.63017905  0.00576371  0.0000860 0.0000
 16  -3489.1006510797  -0.000000374533 0.95120862  0.00331645  0.0000291 0.0000
                 **** Energy Check signals convergence ****

               *****************************************************
               *                     SUCCESS                       *
               *           SCF CONVERGED AFTER  17 CYCLES          *
               *****************************************************

Old exchange energy                            =    -56.718414546 Eh
New exchange energy                            =    -56.718561231 Eh
Exchange energy change after final integration =     -0.000146685 Eh
Total energy after final integration           =  -3489.100797426 Eh
Final COS-X integration done in                =    16.724 sec

----------------
TOTAL SCF ENERGY
----------------

Total Energy       :        -3489.10079743 Eh          -94943.25952 eV

Components:
Nuclear Repulsion  :         4005.91098799 Eh          109006.37976 eV
Electronic Energy  :        -7495.01178542 Eh         -203949.63928 eV
One Electron Energy:       -12771.02338885 Eh         -347517.21384 eV
Two Electron Energy:         5276.01160344 Eh          143567.57456 eV
Max COSX asymmetry :            0.00003217 Eh               0.00088 eV

Virial components:
Potential Energy   :        -6966.24872244 Eh         -189561.26485 eV
Kinetic Energy     :         3477.14792501 Eh           94618.00533 eV
Virial Ratio       :            2.00343755


DFT components:
N(Alpha)           :      131.000113779169 electrons
N(Beta)            :      128.000112511029 electrons
N(Total)           :      259.000226290198 electrons
E(X)               :     -225.590401947147 Eh       
E(C)               :      -11.192638176383 Eh       
E(XC)              :     -236.783040123530 Eh       
DFET-embed. en.    :        0.000000000000 Eh       

---------------
SCF CONVERGENCE
---------------

  Last Energy change         ...    3.3905e-07  Tolerance :   1.0000e-06
  Last MAX-Density change    ...    0.0000e+00  Tolerance :   1.0000e-05
  Last RMS-Density change    ...    0.0000e+00  Tolerance :   1.0000e-06
  Last DIIS Error            ...    1.9716e-05  Tolerance :   1.0000e-06

             **** THE GBW FILE WAS UPDATED (picolinate_water_kcl_freq.gbw) ****
             **** DENSITY picolinate_water_kcl_freq.scfp WAS UPDATED ****
             **** ENERGY FILE WAS UPDATED (picolinate_water_kcl_freq.en.tmp) ****
----------------------
UHF SPIN CONTAMINATION
----------------------

Warning: in a DFT calculation there is little theoretical justification to 
         calculate <S**2> as in Hartree-Fock theory. We will do it anyways
         but you should keep in mind that the values have only limited relevance

Expectation value of <S**2>     :     3.770770
Ideal value S*(S+1) for S=1.5   :     3.750000
Deviation                       :     0.020770

             **** THE GBW FILE WAS UPDATED (picolinate_water_kcl_freq.gbw) ****
             **** DENSITY picolinate_water_kcl_freq.scfp WAS UPDATED ****
----------------
ORBITAL ENERGIES
----------------
                 SPIN UP ORBITALS
  NO   OCC          E(Eh)            E(eV) 
   0   1.0000    -215.771067     -5871.4292 
   1   1.0000    -129.813756     -3532.4119 
   2   1.0000    -101.413544     -2759.6028 
   3   1.0000     -24.792867      -674.6482 
   4   1.0000     -21.082744      -573.6906 
   5   1.0000     -21.081920      -573.6682 
   6   1.0000     -21.081430      -573.6549 
   7   1.0000     -19.129309      -520.5350 
   8   1.0000     -19.127487      -520.4854 
   9   1.0000     -19.121671      -520.3271 
  10   1.0000     -19.111859      -520.0601 
  11   1.0000     -19.107282      -519.9356 
  12   1.0000     -19.100627      -519.7545 
  13   1.0000     -19.088821      -519.4332 
  14   1.0000     -14.383663      -391.3994 
  15   1.0000     -14.383078      -391.3834 
  16   1.0000     -14.378922      -391.2704 
  17   1.0000     -13.252758      -360.6259 
  18   1.0000     -10.594155      -288.2816 
  19   1.0000     -10.594135      -288.2811 
  20   1.0000     -10.594097      -288.2800 
  21   1.0000     -10.292409      -280.0707 
  22   1.0000     -10.288774      -279.9718 
  23   1.0000     -10.283283      -279.8224 
  24   1.0000     -10.249507      -278.9033 
  25   1.0000     -10.246278      -278.8154 
  26   1.0000     -10.245675      -278.7990 
  27   1.0000     -10.243534      -278.7407 
  28   1.0000     -10.242079      -278.7011 
  29   1.0000     -10.229124      -278.3486 
  30   1.0000     -10.226164      -278.2681 
  31   1.0000     -10.225634      -278.2536 
  32   1.0000     -10.222676      -278.1732 
  33   1.0000     -10.218113      -278.0490 
  34   1.0000     -10.217503      -278.0324 
  35   1.0000     -10.212059      -277.8843 
  36   1.0000     -10.209995      -277.8281 
  37   1.0000     -10.209372      -277.8111 
  38   1.0000     -10.207601      -277.7629 
  39   1.0000      -9.342915      -254.2336 
  40   1.0000      -7.100420      -193.2122 
  41   1.0000      -7.099628      -193.1907 
  42   1.0000      -7.099577      -193.1893 
  43   1.0000      -2.975097       -80.9565 
  44   1.0000      -1.923606       -52.3440 
  45   1.0000      -1.921695       -52.2920 
  46   1.0000      -1.920846       -52.2689 
  47   1.0000      -1.422539       -38.7092 
  48   1.0000      -1.059990       -28.8438 
  49   1.0000      -1.054292       -28.6888 
  50   1.0000      -1.048438       -28.5294 
  51   1.0000      -0.986934       -26.8558 
  52   1.0000      -0.983915       -26.7737 
  53   1.0000      -0.979193       -26.6452 
  54   1.0000      -0.969521       -26.3820 
  55   1.0000      -0.965519       -26.2731 
  56   1.0000      -0.961492       -26.1635 
  57   1.0000      -0.947997       -25.7963 
  58   1.0000      -0.830897       -22.6099 
  59   1.0000      -0.830367       -22.5954 
  60   1.0000      -0.825757       -22.4700 
  61   1.0000      -0.796075       -21.6623 
  62   1.0000      -0.794842       -21.6287 
  63   1.0000      -0.789178       -21.4746 
  64   1.0000      -0.789135       -21.4735 
  65   1.0000      -0.788521       -21.4568 
  66   1.0000      -0.787914       -21.4402 
  67   1.0000      -0.688213       -18.7272 
  68   1.0000      -0.671423       -18.2704 
  69   1.0000      -0.669087       -18.2068 
  70   1.0000      -0.663281       -18.0488 
  71   1.0000      -0.657399       -17.8887 
  72   1.0000      -0.656286       -17.8585 
  73   1.0000      -0.650196       -17.6927 
  74   1.0000      -0.581403       -15.8208 
  75   1.0000      -0.577728       -15.7208 
  76   1.0000      -0.572172       -15.5696 
  77   1.0000      -0.532268       -14.4837 
  78   1.0000      -0.521690       -14.1959 
  79   1.0000      -0.518727       -14.1153 
  80   1.0000      -0.513223       -13.9655 
  81   1.0000      -0.512435       -13.9441 
  82   1.0000      -0.506544       -13.7838 
  83   1.0000      -0.488594       -13.2953 
  84   1.0000      -0.483814       -13.1653 
  85   1.0000      -0.479252       -13.0411 
  86   1.0000      -0.473837       -12.8938 
  87   1.0000      -0.466683       -12.6991 
  88   1.0000      -0.464581       -12.6419 
  89   1.0000      -0.456046       -12.4096 
  90   1.0000      -0.454489       -12.3673 
  91   1.0000      -0.450673       -12.2634 
  92   1.0000      -0.447536       -12.1781 
  93   1.0000      -0.444615       -12.0986 
  94   1.0000      -0.434877       -11.8336 
  95   1.0000      -0.434564       -11.8251 
  96   1.0000      -0.422175       -11.4880 
  97   1.0000      -0.417126       -11.3506 
  98   1.0000      -0.412876       -11.2349 
  99   1.0000      -0.405045       -11.0218 
 100   1.0000      -0.402240       -10.9455 
 101   1.0000      -0.396306       -10.7840 
 102   1.0000      -0.395444       -10.7606 
 103   1.0000      -0.394030       -10.7221 
 104   1.0000      -0.388587       -10.5740 
 105   1.0000      -0.358444        -9.7538 
 106   1.0000      -0.345818        -9.4102 
 107   1.0000      -0.332779        -9.0554 
 108   1.0000      -0.331004        -9.0071 
 109   1.0000      -0.329469        -8.9653 
 110   1.0000      -0.325176        -8.8485 
 111   1.0000      -0.321434        -8.7467 
 112   1.0000      -0.313080        -8.5193 
 113   1.0000      -0.308810        -8.4032 
 114   1.0000      -0.299183        -8.1412 
 115   1.0000      -0.294705        -8.0193 
 116   1.0000      -0.285509        -7.7691 
 117   1.0000      -0.284379        -7.7384 
 118   1.0000      -0.281690        -7.6652 
 119   1.0000      -0.276626        -7.5274 
 120   1.0000      -0.269005        -7.3200 
 121   1.0000      -0.260680        -7.0935 
 122   1.0000      -0.257961        -7.0195 
 123   1.0000      -0.255899        -6.9634 
 124   1.0000      -0.250126        -6.8063 
 125   1.0000      -0.244483        -6.6527 
 126   1.0000      -0.242878        -6.6090 
 127   1.0000      -0.241530        -6.5724 
 128   1.0000      -0.232824        -6.3355 
 129   1.0000      -0.232084        -6.3153 
 130   1.0000      -0.230404        -6.2696 
 131   0.0000      -0.072515        -1.9732 
 132   0.0000      -0.066093        -1.7985 
 133   0.0000      -0.064065        -1.7433 
 134   0.0000      -0.063555        -1.7294 
 135   0.0000      -0.047213        -1.2847 
 136   0.0000      -0.043835        -1.1928 
 137   0.0000      -0.038387        -1.0446 
 138   0.0000      -0.032284        -0.8785 
 139   0.0000      -0.020423        -0.5557 
 140   0.0000      -0.016352        -0.4450 
 141   0.0000      -0.013516        -0.3678 
 142   0.0000      -0.008248        -0.2244 
 143   0.0000      -0.006847        -0.1863 
 144   0.0000      -0.002630        -0.0716 
 145   0.0000      -0.000018        -0.0005 
 146   0.0000       0.005127         0.1395 
 147   0.0000       0.010171         0.2768 
 148   0.0000       0.011644         0.3169 
 149   0.0000       0.017939         0.4881 
 150   0.0000       0.020831         0.5668 
 151   0.0000       0.025853         0.7035 
 152   0.0000       0.030413         0.8276 
 153   0.0000       0.035376         0.9626 
 154   0.0000       0.040852         1.1117 
 155   0.0000       0.045162         1.2289 
 156   0.0000       0.046877         1.2756 
 157   0.0000       0.050205         1.3662 
 158   0.0000       0.054369         1.4794 
 159   0.0000       0.055497         1.5101 
 160   0.0000       0.057166         1.5556 
 161   0.0000       0.058818         1.6005 
 162   0.0000       0.060901         1.6572 
 163   0.0000       0.062236         1.6935 
 164   0.0000       0.063366         1.7243 
 165   0.0000       0.065736         1.7888 
 166   0.0000       0.068052         1.8518 
 167   0.0000       0.070179         1.9097 
 168   0.0000       0.076657         2.0859 
 169   0.0000       0.078113         2.1256 
 170   0.0000       0.079829         2.1723 
 171   0.0000       0.084859         2.3091 
 172   0.0000       0.086426         2.3518 
 173   0.0000       0.089950         2.4477 
 174   0.0000       0.095618         2.6019 
 175   0.0000       0.098032         2.6676 
 176   0.0000       0.100607         2.7377 
 177   0.0000       0.104305         2.8383 
 178   0.0000       0.109032         2.9669 
 179   0.0000       0.111226         3.0266 
 180   0.0000       0.112449         3.0599 
 181   0.0000       0.113676         3.0933 
 182   0.0000       0.116115         3.1597 
 183   0.0000       0.117477         3.1967 
 184   0.0000       0.122315         3.3284 
 185   0.0000       0.123151         3.3511 
 186   0.0000       0.124322         3.3830 
 187   0.0000       0.129774         3.5313 
 188   0.0000       0.132010         3.5922 
 189   0.0000       0.133192         3.6243 
 190   0.0000       0.134211         3.6521 
 191   0.0000       0.135318         3.6822 
 192   0.0000       0.135883         3.6976 
 193   0.0000       0.136861         3.7242 
 194   0.0000       0.137101         3.7307 
 195   0.0000       0.141046         3.8380 
 196   0.0000       0.142456         3.8764 
 197   0.0000       0.144616         3.9352 
 198   0.0000       0.146937         3.9984 
 199   0.0000       0.150528         4.0961 
 200   0.0000       0.151825         4.1314 
 201   0.0000       0.153858         4.1867 
 202   0.0000       0.155427         4.2294 
 203   0.0000       0.156697         4.2639 
 204   0.0000       0.161594         4.3972 
 205   0.0000       0.162327         4.4172 
 206   0.0000       0.165245         4.4965 
 207   0.0000       0.167858         4.5677 
 208   0.0000       0.172063         4.6821 
 209   0.0000       0.177037         4.8174 
 210   0.0000       0.178570         4.8591 
 211   0.0000       0.178930         4.8689 
 212   0.0000       0.183721         4.9993 
 213   0.0000       0.186338         5.0705 
 214   0.0000       0.189185         5.1480 
 215   0.0000       0.190657         5.1880 
 216   0.0000       0.195286         5.3140 
 217   0.0000       0.197523         5.3749 
 218   0.0000       0.199111         5.4181 
 219   0.0000       0.202474         5.5096 
 220   0.0000       0.205292         5.5863 
 221   0.0000       0.206750         5.6259 
 222   0.0000       0.208176         5.6648 
 223   0.0000       0.209862         5.7106 
 224   0.0000       0.212954         5.7948 
 225   0.0000       0.213500         5.8096 
 226   0.0000       0.216443         5.8897 
 227   0.0000       0.217799         5.9266 
 228   0.0000       0.222044         6.0421 
 229   0.0000       0.223381         6.0785 
 230   0.0000       0.224774         6.1164 
 231   0.0000       0.227080         6.1792 
 232   0.0000       0.229835         6.2541 
 233   0.0000       0.231710         6.3052 
 234   0.0000       0.233121         6.3435 
 235   0.0000       0.236336         6.4310 
 236   0.0000       0.240369         6.5408 
 237   0.0000       0.243726         6.6321 
 238   0.0000       0.246575         6.7096 
 239   0.0000       0.249519         6.7897 
 240   0.0000       0.253555         6.8996 
 241   0.0000       0.255867         6.9625 
 242   0.0000       0.258548         7.0354 
 243   0.0000       0.260713         7.0944 
 244   0.0000       0.261469         7.1149 
 245   0.0000       0.264622         7.2007 
 246   0.0000       0.266594         7.2544 
 247   0.0000       0.268818         7.3149 
 248   0.0000       0.272105         7.4044 
 249   0.0000       0.272941         7.4271 
 250   0.0000       0.274974         7.4824 
 251   0.0000       0.279203         7.5975 
 252   0.0000       0.280956         7.6452 
 253   0.0000       0.283590         7.7169 
 254   0.0000       0.284707         7.7473 
 255   0.0000       0.287417         7.8210 
 256   0.0000       0.289636         7.8814 
 257   0.0000       0.291019         7.9190 
 258   0.0000       0.293574         7.9886 
 259   0.0000       0.296391         8.0652 
 260   0.0000       0.297556         8.0969 
 261   0.0000       0.300434         8.1752 
 262   0.0000       0.304549         8.2872 
 263   0.0000       0.305642         8.3169 
 264   0.0000       0.310717         8.4550 
 265   0.0000       0.313293         8.5251 
 266   0.0000       0.315290         8.5795 
 267   0.0000       0.318663         8.6713 
 268   0.0000       0.322210         8.7678 
 269   0.0000       0.325597         8.8599 
 270   0.0000       0.326162         8.8753 
 271   0.0000       0.332260         9.0413 
 272   0.0000       0.335187         9.1209 
 273   0.0000       0.337300         9.1784 
 274   0.0000       0.338523         9.2117 
 275   0.0000       0.342188         9.3114 
 276   0.0000       0.345247         9.3947 
 277   0.0000       0.349487         9.5100 
 278   0.0000       0.350464         9.5366 
 279   0.0000       0.356144         9.6912 
 280   0.0000       0.358768         9.7626 
 281   0.0000       0.360591         9.8122 
 282   0.0000       0.362503         9.8642 
 283   0.0000       0.364811         9.9270 
 284   0.0000       0.366151         9.9635 
 285   0.0000       0.370075        10.0703 
 286   0.0000       0.372508        10.1365 
 287   0.0000       0.374347        10.1865 
 288   0.0000       0.377725        10.2784 
 289   0.0000       0.380168        10.3449 
 290   0.0000       0.381377        10.3778 
 291   0.0000       0.383812        10.4440 
 292   0.0000       0.385379        10.4867 
 293   0.0000       0.389766        10.6061 
 294   0.0000       0.394108        10.7242 
 295   0.0000       0.395886        10.7726 
 296   0.0000       0.396498        10.7893 
 297   0.0000       0.402130        10.9425 
 298   0.0000       0.408544        11.1170 
 299   0.0000       0.410253        11.1636 
 300   0.0000       0.413702        11.2574 
 301   0.0000       0.416757        11.3405 
 302   0.0000       0.422602        11.4996 
 303   0.0000       0.425837        11.5876 
 304   0.0000       0.428284        11.6542 
 305   0.0000       0.430506        11.7147 
 306   0.0000       0.434670        11.8280 
 307   0.0000       0.439293        11.9538 
 308   0.0000       0.445676        12.1275 
 309   0.0000       0.448056        12.1922 
 310   0.0000       0.453128        12.3302 
 311   0.0000       0.461565        12.5598 
 312   0.0000       0.461820        12.5668 
 313   0.0000       0.464541        12.6408 
 314   0.0000       0.467914        12.7326 
 315   0.0000       0.477924        13.0050 
 316   0.0000       0.480271        13.0688 
 317   0.0000       0.486590        13.2408 
 318   0.0000       0.487968        13.2783 
 319   0.0000       0.492813        13.4101 
 320   0.0000       0.499992        13.6055 
 321   0.0000       0.503971        13.7137 
 322   0.0000       0.509687        13.8693 
 323   0.0000       0.517828        14.0908 
 324   0.0000       0.518864        14.1190 
 325   0.0000       0.525419        14.2974 
 326   0.0000       0.530655        14.4399 
 327   0.0000       0.532341        14.4857 
 328   0.0000       0.536280        14.5929 
 329   0.0000       0.537856        14.6358 
 330   0.0000       0.544160        14.8074 
 331   0.0000       0.556482        15.1426 
 332   0.0000       0.567486        15.4421 
 333   0.0000       0.568476        15.4690 
 334   0.0000       0.581770        15.8308 
 335   0.0000       0.584694        15.9103 
 336   0.0000       0.593512        16.1503 
 337   0.0000       0.600796        16.3485 
 338   0.0000       0.606082        16.4923 
 339   0.0000       0.607588        16.5333 
 340   0.0000       0.620753        16.8915 
 341   0.0000       0.626870        17.0580 
 342   0.0000       0.631849        17.1935 
 343   0.0000       0.642902        17.4942 
 344   0.0000       0.648348        17.6425 
 345   0.0000       0.661357        17.9964 
 346   0.0000       0.678162        18.4537 
 347   0.0000       0.697467        18.9791 
 348   0.0000       0.700285        19.0557 
 349   0.0000       0.705805        19.2059 
 350   0.0000       0.707729        19.2583 
 351   0.0000       0.715929        19.4814 
 352   0.0000       0.723246        19.6805 
 353   0.0000       0.728280        19.8175 
 354   0.0000       0.732285        19.9265 
 355   0.0000       0.739124        20.1126 
 356   0.0000       0.740896        20.1608 
 357   0.0000       0.746444        20.3118 
 358   0.0000       0.750127        20.4120 
 359   0.0000       0.755273        20.5520 
 360   0.0000       0.757308        20.6074 
 361   0.0000       0.760917        20.7056 
 362   0.0000       0.765147        20.8207 
 363   0.0000       0.770058        20.9543 
 364   0.0000       0.775807        21.1108 
 365   0.0000       0.780125        21.2283 
 366   0.0000       0.787548        21.4303 
 367   0.0000       0.794844        21.6288 
 368   0.0000       0.801908        21.8210 
 369   0.0000       0.805174        21.9099 
 370   0.0000       0.815069        22.1792 
 371   0.0000       0.824048        22.4235 
 372   0.0000       0.828367        22.5410 
 373   0.0000       0.842138        22.9158 
 374   0.0000       0.849332        23.1115 
 375   0.0000       0.854220        23.2445 
 376   0.0000       0.859596        23.3908 
 377   0.0000       0.874578        23.7985 
 378   0.0000       0.876811        23.8592 
 379   0.0000       0.896803        24.4032 
 380   0.0000       0.898323        24.4446 
 381   0.0000       0.906030        24.6543 
 382   0.0000       0.913327        24.8529 
 383   0.0000       0.929328        25.2883 
 384   0.0000       0.937230        25.5033 
 385   0.0000       0.939607        25.5680 
 386   0.0000       0.947715        25.7886 
 387   0.0000       0.950807        25.8728 
 388   0.0000       0.951268        25.8853 
 389   0.0000       0.955811        26.0089 
 390   0.0000       0.959710        26.1150 
 391   0.0000       0.963248        26.2113 
 392   0.0000       0.969238        26.3743 
 393   0.0000       0.975515        26.5451 
 394   0.0000       0.979385        26.6504 
 395   0.0000       0.981411        26.7055 
 396   0.0000       0.984704        26.7952 
 397   0.0000       0.990743        26.9595 
 398   0.0000       0.994637        27.0655 
 399   0.0000       0.997767        27.1506 
 400   0.0000       1.000126        27.2148 
 401   0.0000       1.006585        27.3906 
 402   0.0000       1.009778        27.4775 
 403   0.0000       1.013763        27.5859 
 404   0.0000       1.020875        27.7794 
 405   0.0000       1.034009        28.1368 
 406   0.0000       1.068713        29.0812 
 407   0.0000       1.086002        29.5516 
 408   0.0000       1.091563        29.7029 
 409   0.0000       1.102128        29.9904 
 410   0.0000       1.116048        30.3692 
 411   0.0000       1.119858        30.4729 
 412   0.0000       1.124032        30.5865 
 413   0.0000       1.134980        30.8844 
 414   0.0000       1.138690        30.9853 
 415   0.0000       1.152131        31.3511 
 416   0.0000       1.154211        31.4077 
 417   0.0000       1.156284        31.4641 
 418   0.0000       1.165741        31.7214 
 419   0.0000       1.169546        31.8250 
 420   0.0000       1.177754        32.0483 
 421   0.0000       1.183649        32.2087 
 422   0.0000       1.188940        32.3527 
 423   0.0000       1.203090        32.7378 
 424   0.0000       1.207016        32.8446 
 425   0.0000       1.210370        32.9359 
 426   0.0000       1.217259        33.1233 
 427   0.0000       1.223974        33.3060 
 428   0.0000       1.232261        33.5315 
 429   0.0000       1.236516        33.6473 
 430   0.0000       1.239878        33.7388 
 431   0.0000       1.250723        34.0339 
 432   0.0000       1.259521        34.2733 
 433   0.0000       1.276030        34.7226 
 434   0.0000       1.282778        34.9062 
 435   0.0000       1.285595        34.9828 
 436   0.0000       1.299749        35.3680 
 437   0.0000       1.303497        35.4700 
 438   0.0000       1.312091        35.7038 
 439   0.0000       1.330436        36.2030 
 440   0.0000       1.331958        36.2444 
 441   0.0000       1.335035        36.3281 
 442   0.0000       1.338665        36.4269 
 443   0.0000       1.339105        36.4389 
 444   0.0000       1.341043        36.4916 
 445   0.0000       1.351626        36.7796 
 446   0.0000       1.354262        36.8513 
 447   0.0000       1.358318        36.9617 
 448   0.0000       1.364018        37.1168 
 449   0.0000       1.364635        37.1336 
 450   0.0000       1.367117        37.2012 
 451   0.0000       1.371632        37.3240 
 452   0.0000       1.376613        37.4595 
 453   0.0000       1.378048        37.4986 
 454   0.0000       1.382152        37.6103 
 455   0.0000       1.388314        37.7779 
 456   0.0000       1.393853        37.9287 
 457   0.0000       1.394762        37.9534 
 458   0.0000       1.398107        38.0444 
 459   0.0000       1.404383        38.2152 
 460   0.0000       1.413453        38.4620 
 461   0.0000       1.415054        38.5056 
 462   0.0000       1.416098        38.5340 
 463   0.0000       1.419578        38.6287 
 464   0.0000       1.420683        38.6588 
 465   0.0000       1.426362        38.8133 
 466   0.0000       1.432517        38.9808 
 467   0.0000       1.439762        39.1779 
 468   0.0000       1.443047        39.2673 
 469   0.0000       1.448323        39.4109 
 470   0.0000       1.457643        39.6645 
 471   0.0000       1.462745        39.8033 
 472   0.0000       1.467837        39.9419 
 473   0.0000       1.472284        40.0629 
 474   0.0000       1.475399        40.1476 
 475   0.0000       1.488443        40.5026 
 476   0.0000       1.496285        40.7160 
 477   0.0000       1.501512        40.8582 
 478   0.0000       1.509359        41.0718 
 479   0.0000       1.511379        41.1267 
 480   0.0000       1.513092        41.1733 
 481   0.0000       1.518164        41.3113 
 482   0.0000       1.531445        41.6727 
 483   0.0000       1.545170        42.0462 
 484   0.0000       1.553687        42.2780 
 485   0.0000       1.562612        42.5208 
 486   0.0000       1.576795        42.9068 
 487   0.0000       1.584914        43.1277 
 488   0.0000       1.604515        43.6611 
 489   0.0000       1.612279        43.8724 
 490   0.0000       1.630757        44.3752 
 491   0.0000       1.636300        44.5260 
 492   0.0000       1.659279        45.1513 
 493   0.0000       1.661617        45.2149 
 494   0.0000       1.667035        45.3623 
 495   0.0000       1.680182        45.7201 
 496   0.0000       1.699626        46.2492 
 497   0.0000       1.720504        46.8173 
 498   0.0000       1.738888        47.3175 
 499   0.0000       1.740232        47.3541 
 500   0.0000       1.752024        47.6750 
 501   0.0000       1.772007        48.2187 
 502   0.0000       1.775102        48.3030 
 503   0.0000       1.784324        48.5539 
 504   0.0000       1.789532        48.6957 
 505   0.0000       1.797113        48.9019 
 506   0.0000       1.802575        49.0506 
 507   0.0000       1.817416        49.4544 
 508   0.0000       1.826435        49.6998 
 509   0.0000       1.828088        49.7448 
 510   0.0000       1.830311        49.8053 
 511   0.0000       1.846072        50.2342 
 512   0.0000       1.850152        50.3452 
 513   0.0000       1.862661        50.6856 
 514   0.0000       1.866905        50.8011 
 515   0.0000       1.881631        51.2018 
 516   0.0000       1.887501        51.3615 
 517   0.0000       1.896018        51.5933 
 518   0.0000       1.905408        51.8488 
 519   0.0000       1.914705        52.1018 
 520   0.0000       1.919848        52.2417 
 521   0.0000       1.924292        52.3626 
 522   0.0000       1.933691        52.6184 
 523   0.0000       1.936110        52.6842 
 524   0.0000       1.943162        52.8761 
 525   0.0000       1.949882        53.0590 
 526   0.0000       1.952999        53.1438 
 527   0.0000       1.957120        53.2560 
 528   0.0000       1.966503        53.5113 
 529   0.0000       1.969071        53.5811 
 530   0.0000       1.973929        53.7133 
 531   0.0000       1.983756        53.9807 
 532   0.0000       1.986082        54.0440 
 533   0.0000       1.986985        54.0686 
 534   0.0000       1.994187        54.2646 
 535   0.0000       1.996121        54.3172 
 536   0.0000       2.000942        54.4484 
 537   0.0000       2.008334        54.6495 
 538   0.0000       2.013909        54.8012 
 539   0.0000       2.021248        55.0009 
 540   0.0000       2.030095        55.2417 
 541   0.0000       2.033607        55.3373 
 542   0.0000       2.044491        55.6334 
 543   0.0000       2.056772        55.9676 
 544   0.0000       2.067349        56.2554 
 545   0.0000       2.078605        56.5617 
 546   0.0000       2.085887        56.7599 
 547   0.0000       2.090340        56.8811 
 548   0.0000       2.104776        57.2739 
 549   0.0000       2.106016        57.3076 
 550   0.0000       2.109377        57.3991 
 551   0.0000       2.114529        57.5393 
 552   0.0000       2.122824        57.7650 
 553   0.0000       2.134978        58.0957 
 554   0.0000       2.151361        58.5415 
 555   0.0000       2.162646        58.8486 
 556   0.0000       2.184249        59.4364 
 557   0.0000       2.186844        59.5071 
 558   0.0000       2.198136        59.8143 
 559   0.0000       2.206644        60.0458 
 560   0.0000       2.209199        60.1154 
 561   0.0000       2.215079        60.2754 
 562   0.0000       2.232240        60.7423 
 563   0.0000       2.235799        60.8392 
 564   0.0000       2.242699        61.0269 
 565   0.0000       2.254738        61.3545 
 566   0.0000       2.276603        61.9495 
 567   0.0000       2.287295        62.2405 
 568   0.0000       2.295176        62.4549 
 569   0.0000       2.295763        62.4709 
 570   0.0000       2.299398        62.5698 
 571   0.0000       2.305118        62.7254 
 572   0.0000       2.309091        62.8335 
 573   0.0000       2.312927        62.9379 
 574   0.0000       2.322766        63.2057 
 575   0.0000       2.337782        63.6143 
 576   0.0000       2.346774        63.8590 
 577   0.0000       2.363539        64.3152 
 578   0.0000       2.365878        64.3788 
 579   0.0000       2.372517        64.5595 
 580   0.0000       2.373830        64.5952 
 581   0.0000       2.377324        64.6903 
 582   0.0000       2.385377        64.9094 
 583   0.0000       2.388541        64.9955 
 584   0.0000       2.398835        65.2756 
 585   0.0000       2.405149        65.4474 
 586   0.0000       2.412552        65.6489 
 587   0.0000       2.425546        66.0025 
 588   0.0000       2.436551        66.3019 
 589   0.0000       2.443476        66.4904 
 590   0.0000       2.452848        66.7454 
 591   0.0000       2.454701        66.7958 
 592   0.0000       2.470190        67.2173 
 593   0.0000       2.492353        67.8204 
 594   0.0000       2.496125        67.9230 
 595   0.0000       2.518090        68.5207 
 596   0.0000       2.528317        68.7990 
 597   0.0000       2.529255        68.8245 
 598   0.0000       2.534506        68.9674 
 599   0.0000       2.542567        69.1868 
 600   0.0000       2.550848        69.4121 
 601   0.0000       2.556623        69.5693 
 602   0.0000       2.561606        69.7048 
 603   0.0000       2.566744        69.8447 
 604   0.0000       2.575260        70.0764 
 605   0.0000       2.579031        70.1790 
 606   0.0000       2.592293        70.5399 
 607   0.0000       2.597535        70.6825 
 608   0.0000       2.599615        70.7391 
 609   0.0000       2.609521        71.0087 
 610   0.0000       2.627411        71.4955 
 611   0.0000       2.635775        71.7231 
 612   0.0000       2.642032        71.8934 
 613   0.0000       2.644792        71.9684 
 614   0.0000       2.651072        72.1393 
 615   0.0000       2.655064        72.2480 
 616   0.0000       2.675560        72.8057 
 617   0.0000       2.685466        73.0752 
 618   0.0000       2.708367        73.6984 
 619   0.0000       2.720835        74.0377 
 620   0.0000       2.722921        74.0944 
 621   0.0000       2.725168        74.1556 
 622   0.0000       2.731503        74.3280 
 623   0.0000       2.746789        74.7439 
 624   0.0000       2.755305        74.9756 
 625   0.0000       2.764887        75.2364 
 626   0.0000       2.766935        75.2921 
 627   0.0000       2.772089        75.4324 
 628   0.0000       2.777311        75.5745 
 629   0.0000       2.784443        75.7686 
 630   0.0000       2.798894        76.1618 
 631   0.0000       2.822512        76.8045 
 632   0.0000       2.824553        76.8600 
 633   0.0000       2.828636        76.9711 
 634   0.0000       2.875817        78.2550 
 635   0.0000       2.882370        78.4333 
 636   0.0000       2.886006        78.5322 
 637   0.0000       2.893681        78.7411 
 638   0.0000       2.899910        78.9105 
 639   0.0000       2.922992        79.5386 
 640   0.0000       2.984720        81.2184 
 641   0.0000       2.998166        81.5843 
 642   0.0000       3.012783        81.9820 
 643   0.0000       3.029426        82.4349 
 644   0.0000       3.059734        83.2596 
 645   0.0000       3.067527        83.4716 
 646   0.0000       3.086570        83.9898 
 647   0.0000       3.096797        84.2681 
 648   0.0000       3.114252        84.7431 
 649   0.0000       3.126046        85.0640 
 650   0.0000       3.134904        85.3051 
 651   0.0000       3.148542        85.6762 
 652   0.0000       3.166396        86.1620 
 653   0.0000       3.172748        86.3349 
 654   0.0000       3.182285        86.5944 
 655   0.0000       3.207243        87.2735 
 656   0.0000       3.229942        87.8912 
 657   0.0000       3.238589        88.1265 
 658   0.0000       3.264197        88.8233 
 659   0.0000       3.270459        88.9937 
 660   0.0000       3.292761        89.6006 
 661   0.0000       3.299555        89.7855 
 662   0.0000       3.301869        89.8484 
 663   0.0000       3.312786        90.1455 
 664   0.0000       3.317929        90.2854 
 665   0.0000       3.331091        90.6436 
 666   0.0000       3.351493        91.1988 
 667   0.0000       3.357331        91.3576 
 668   0.0000       3.364778        91.5603 
 669   0.0000       3.386794        92.1593 
 670   0.0000       3.394510        92.3693 
 671   0.0000       3.397802        92.4589 
 672   0.0000       3.417347        92.9907 
 673   0.0000       3.459327        94.1331 
 674   0.0000       3.548115        96.5491 
 675   0.0000       3.550489        96.6137 
 676   0.0000       3.559547        96.8602 
 677   0.0000       3.601608        98.0047 
 678   0.0000       3.764643       102.4412 
 679   0.0000       3.918256       106.6212 
 680   0.0000       3.919791       106.6629 
 681   0.0000       3.924390       106.7881 

                 SPIN DOWN ORBITALS
  NO   OCC          E(Eh)            E(eV) 
   0   1.0000    -215.770433     -5871.4120 
   1   1.0000    -129.813756     -3532.4119 
   2   1.0000    -101.413544     -2759.6028 
   3   1.0000     -24.747691      -673.4189 
   4   1.0000     -21.045270      -572.6709 
   5   1.0000     -21.044377      -572.6466 
   6   1.0000     -21.042843      -572.6049 
   7   1.0000     -19.129121      -520.5299 
   8   1.0000     -19.127115      -520.4752 
   9   1.0000     -19.121510      -520.3227 
  10   1.0000     -19.111485      -520.0499 
  11   1.0000     -19.106842      -519.9236 
  12   1.0000     -19.100235      -519.7438 
  13   1.0000     -19.088820      -519.4332 
  14   1.0000     -14.384720      -391.4281 
  15   1.0000     -14.384165      -391.4130 
  16   1.0000     -14.379917      -391.2974 
  17   1.0000     -13.252758      -360.6259 
  18   1.0000     -10.594155      -288.2816 
  19   1.0000     -10.594135      -288.2811 
[...]
 22:    143.87   0.000246    1.24  0.000534  ( 0.014291 -0.005212  0.017397)
 23:    153.64   0.000341    1.73  0.000694  ( 0.018492 -0.003296  0.018460)
 24:    159.11   0.000124    0.63  0.000243  (-0.010839 -0.010481  0.003939)
 25:    171.12   0.000291    1.47  0.000532  ( 0.018622 -0.006253 -0.012069)
 26:    179.08   0.000394    1.99  0.000687  (-0.004655  0.003575 -0.025544)
 27:    183.76   0.001319    6.67  0.002240  (-0.008620 -0.034613 -0.031105)
 28:    188.84   0.000469    2.37  0.000775  (-0.004957 -0.015983 -0.022252)
 29:    193.72   0.000070    0.35  0.000112  (-0.009223  0.002256  0.004701)
 30:    216.12   0.000328    1.66  0.000474  ( 0.010018  0.019017  0.003466)
 31:    236.48   0.000449    2.27  0.000593  (-0.002665  0.014691  0.019238)
 32:    259.20   0.004536   22.92  0.005461  (-0.064752  0.030414  0.018534)
 33:    283.19   0.002204   11.14  0.002429  (-0.018113 -0.045103  0.008153)
 34:    286.69   0.015936   80.53  0.017346  ( 0.049103  0.058751 -0.107161)
 35:    290.38   0.000847    4.28  0.000910  ( 0.014436 -0.014715  0.022024)
 36:    305.45   0.011398   57.60  0.011645  ( 0.046877  0.095820 -0.016304)
 37:    360.11   0.002086   10.54  0.001808  ( 0.025628 -0.029719 -0.016358)
 38:    380.07   0.009260   46.80  0.007603  (-0.007337  0.080722 -0.032145)
 39:    387.58   0.005699   28.80  0.004588  ( 0.065460  0.006293  0.016240)
 40:    411.08   0.000288    1.46  0.000219  ( 0.013298 -0.000540  0.006466)
 41:    415.12   0.000296    1.50  0.000223  (-0.001420 -0.012029 -0.008716)
 42:    426.12   0.000836    4.22  0.000612  ( 0.005841 -0.011104  0.021321)
 43:    447.19   0.002546   12.87  0.001777  ( 0.009817 -0.026221 -0.031513)
 44:    447.64   0.000292    1.48  0.000203  (-0.014042 -0.002234  0.001146)
 45:    450.44   0.001356    6.85  0.000940  ( 0.020693 -0.011487 -0.019480)
 46:    460.72   0.001864    9.42  0.001262  (-0.018665 -0.028117 -0.011108)
 47:    470.90   0.017735   89.62  0.011753  ( 0.014952 -0.067889  0.083187)
 48:    472.77   0.016480   83.29  0.010878  ( 0.098998  0.032788 -0.001635)
 49:    504.61   0.048991  247.58  0.030297  ( 0.019036  0.079805  0.153512)
 50:    532.81   0.013196   66.69  0.007729  (-0.022437 -0.075725  0.038615)
 51:    540.39   0.000160    0.81  0.000093  ( 0.002738  0.008619 -0.003284)
 52:    543.36   0.000569    2.88  0.000327  (-0.009485 -0.014600  0.004887)
 53:    546.39   0.000583    2.94  0.000333  (-0.002695 -0.005576 -0.017159)
 54:    668.62   0.000296    1.49  0.000138  (-0.005496  0.009712  0.003669)
 55:    671.15   0.002853   14.42  0.001326  (-0.030388 -0.013233  0.015095)
 56:    672.65   0.004887   24.69  0.002267  ( 0.018227 -0.043891  0.002885)
 57:    680.51   0.006443   32.56  0.002954  (-0.030457 -0.005560 -0.044675)
 58:    688.37   0.005284   26.70  0.002395  ( 0.048597 -0.002031 -0.005441)
 59:    696.69   0.009266   46.83  0.004150  (-0.008535 -0.063846  0.001080)
 60:    718.55   0.001929    9.75  0.000838  ( 0.010965 -0.018852  0.019035)
 61:    725.74   0.004772   24.12  0.002052  (-0.042225 -0.008817  0.013827)
 62:    729.75   0.007576   38.29  0.003240  (-0.003094 -0.013569 -0.055192)
 63:    757.17   0.005174   26.14  0.002132  (-0.023912 -0.008405 -0.038598)
 64:    761.10   0.005417   27.37  0.002221  (-0.037535 -0.019552  0.020730)
 65:    769.17   0.005837   29.50  0.002368  (-0.017904  0.045192 -0.002262)
 66:    814.66   0.000292    1.48  0.000112  ( 0.006964  0.000484  0.007954)
 67:    820.73   0.000663    3.35  0.000252  (-0.003632 -0.011348  0.010490)
 68:    826.77   0.001061    5.36  0.000400  (-0.008696  0.017736  0.003199)
 69:    857.79   0.004261   21.53  0.001550  ( 0.026878  0.004375  0.028435)
 70:    862.67   0.013349   67.46  0.004829  (-0.042480 -0.007705  0.054451)
 71:    868.30   0.007341   37.10  0.002638  (-0.021612 -0.018867 -0.042604)
 72:    911.01   0.000341    1.72  0.000117  (-0.005460 -0.001679 -0.009172)
 73:    918.65   0.000088    0.45  0.000030  ( 0.004197  0.001412 -0.003211)
 74:    933.88   0.000024    0.12  0.000008  ( 0.000405 -0.001194 -0.002509)
 75:    975.50   0.000003    0.02  0.000001  ( 0.000461 -0.000105  0.000892)
 76:    993.78   0.000115    0.58  0.000036  (-0.004047 -0.002427  0.003726)
 77:   1014.11   0.000067    0.34  0.000021  (-0.002006 -0.001336 -0.003845)
 78:   1014.29   0.000156    0.79  0.000048  (-0.003302  0.005982 -0.001154)
 79:   1017.24   0.000034    0.17  0.000010  (-0.003018 -0.000384  0.001054)
 80:   1055.84   0.001045    5.28  0.000309  (-0.014864 -0.008178  0.004601)
 81:   1060.51   0.002825   14.28  0.000831  (-0.009718 -0.025435  0.009483)
 82:   1061.58   0.001654    8.36  0.000486  (-0.013220  0.017489  0.002336)
 83:   1063.59   0.001923    9.72  0.000564  (-0.015992  0.017484 -0.001655)
 84:   1077.31   0.005123   25.89  0.001484  (-0.030074  0.023963  0.002332)
 85:   1080.92   0.004689   23.70  0.001354  ( 0.009843 -0.035445  0.000667)
 86:   1085.44   0.004967   25.10  0.001428  ( 0.031750  0.014174 -0.014800)
 87:   1125.82   0.003317   16.76  0.000919  ( 0.006255 -0.028843  0.006959)
 88:   1126.12   0.001687    8.52  0.000467  (-0.016795  0.009176  0.010055)
 89:   1126.99   0.000491    2.48  0.000136  ( 0.001511  0.011274 -0.002566)
 90:   1176.76   0.000349    1.77  0.000093  ( 0.008163 -0.000195 -0.005099)
 91:   1177.50   0.000086    0.44  0.000023  (-0.002899  0.000821 -0.003715)
 92:   1177.77   0.000349    1.76  0.000093  ( 0.004232  0.005127  0.006951)
 93:   1199.35   0.008561   43.26  0.002227  ( 0.035368  0.025500  0.018063)
 94:   1203.76   0.007060   35.68  0.001830  ( 0.000725  0.039487 -0.016449)
 95:   1209.23   0.005036   25.45  0.001300  ( 0.025203 -0.017427  0.018994)
 96:   1307.61   0.002091   10.56  0.000499  (-0.001664  0.000403  0.022271)
 97:   1314.52   0.002484   12.55  0.000590  (-0.021813 -0.002627  0.010339)
 98:   1316.03   0.000196    0.99  0.000046  ( 0.006084 -0.002792  0.001245)
 99:   1335.58   0.057597  291.07  0.013458  (-0.074389 -0.069078  0.056146)
100:   1345.68   0.083107  419.99  0.019273  ( 0.078757 -0.111923 -0.023302)
101:   1358.29   0.014026   70.88  0.003222  ( 0.018354 -0.053249  0.007075)
102:   1375.25   0.019893  100.53  0.004514  ( 0.028748  0.059679 -0.011220)
103:   1378.17   0.022743  114.94  0.005150  (-0.050517  0.050861  0.003329)
104:   1391.29   0.028086  141.93  0.006300  (-0.038539  0.068659 -0.010009)
105:   1488.35   0.003125   15.79  0.000655  (-0.016211  0.000691 -0.019796)
106:   1489.80   0.002966   14.99  0.000621  (-0.017603 -0.017608  0.001161)
107:   1490.85   0.000564    2.85  0.000118  ( 0.006822 -0.006975  0.004780)
108:   1517.22   0.005253   26.55  0.001080  (-0.017530 -0.008423 -0.026500)
109:   1522.32   0.002325   11.75  0.000477  (-0.005661 -0.013778  0.015962)
110:   1523.46   0.002480   12.53  0.000508  ( 0.016470 -0.001220  0.015337)
111:   1622.84   0.007736   39.10  0.001488  ( 0.032079 -0.011024  0.018360)
112:   1640.88   0.000539    2.72  0.000102  (-0.006030 -0.004795 -0.006563)
113:   1643.41   0.001698    8.58  0.000322  (-0.011239 -0.011629  0.007799)
114:   1645.23   0.001386    7.00  0.000263  (-0.008394  0.000665 -0.013854)
115:   1673.70   0.010178   51.44  0.001898  (-0.039181 -0.015784 -0.010654)
116:   1681.06   0.010151   51.30  0.001884  ( 0.022286 -0.034963  0.012857)
117:   1681.45   0.004715   23.83  0.000875  (-0.004757 -0.029116  0.002185)
118:   1789.90   0.175403  886.42  0.030581  ( 0.077663 -0.044261  0.150301)
119:   1801.11   0.140017  707.59  0.024260  ( 0.110531  0.106341  0.027098)
120:   1817.33   0.056069  283.35  0.009628  ( 0.040869  0.063455 -0.062698)
121:   3202.40   0.038023  192.16  0.003705  (-0.032645 -0.003930 -0.051226)
122:   3225.80   0.002143   10.83  0.000207  (-0.009750 -0.006630  0.008262)
123:   3233.38   0.001556    7.86  0.000150  ( 0.001732 -0.012065  0.001254)
124:   3234.72   0.001511    7.64  0.000146  (-0.008994  0.007706 -0.002339)
125:   3248.67   0.000107    0.54  0.000010  ( 0.000754  0.000854  0.002997)
126:   3252.41   0.000126    0.64  0.000012  (-0.000010 -0.003393  0.000775)
127:   3253.41   0.000509    2.57  0.000049  ( 0.006714  0.001738  0.000834)
128:   3260.14   0.001165    5.89  0.000112  ( 0.006042 -0.008156 -0.002918)
129:   3261.94   0.000296    1.50  0.000028  ( 0.003232  0.001725 -0.003864)
130:   3264.33   0.000055    0.28  0.000005  ( 0.001478 -0.001514 -0.000866)
131:   3264.53   0.000849    4.29  0.000081  ( 0.003366 -0.006326 -0.005458)
132:   3267.01   0.001935    9.78  0.000185  (-0.010859  0.005697  0.005871)
133:   3673.56   0.102042  515.68  0.008668  (-0.003655 -0.057837  0.072869)
134:   3874.54   0.096282  486.57  0.007755  ( 0.043032  0.017950 -0.074704)

* The epsilon (eps) is given for a Dirac delta lineshape.
** The dipole moment derivative (T) already includes vibrational overlap.

The first frequency considered to be a vibration is 15
The total number of vibrations considered is 120


--------------------------
THERMOCHEMISTRY AT 298.15K
--------------------------

Temperature         ... 298.15 K
Pressure            ... 1.00 atm
Total Mass          ... 510.88 AMU

Throughout the following assumptions are being made:
  (1) The electronic state is orbitally nondegenerate
      but the spin degeneracy is treated
  (2) There are no thermally accessible electronically excited states
  (3) Hindered rotations indicated by low frequency modes are not
      treated as such but are treated as vibrations and this may
      cause some error
  (4) All equations used are the standard statistical mechanics
      equations for an ideal gas
  (5) All vibrations are strictly harmonic

freq.      15.26  E(vib)   ...       0.57 
freq.      21.34  E(vib)   ...       0.56 
freq.      79.07  E(vib)   ...       0.49 
freq.      80.64  E(vib)   ...       0.48 
freq.      98.60  E(vib)   ...       0.46 
freq.     110.12  E(vib)   ...       0.45 
freq.     129.04  E(vib)   ...       0.43 
freq.     143.87  E(vib)   ...       0.41 
freq.     153.64  E(vib)   ...       0.40 
freq.     159.11  E(vib)   ...       0.39 
freq.     171.12  E(vib)   ...       0.38 
freq.     179.08  E(vib)   ...       0.37 
freq.     183.76  E(vib)   ...       0.37 
freq.     188.84  E(vib)   ...       0.36 
freq.     193.72  E(vib)   ...       0.36 
freq.     216.12  E(vib)   ...       0.34 
freq.     236.48  E(vib)   ...       0.32 
freq.     259.20  E(vib)   ...       0.30 
freq.     283.19  E(vib)   ...       0.28 
freq.     286.69  E(vib)   ...       0.27 
freq.     290.38  E(vib)   ...       0.27 
freq.     305.45  E(vib)   ...       0.26 
freq.     360.11  E(vib)   ...       0.22 
freq.     380.07  E(vib)   ...       0.21 
freq.     387.58  E(vib)   ...       0.20 
freq.     411.08  E(vib)   ...       0.19 
freq.     415.12  E(vib)   ...       0.19 
freq.     426.12  E(vib)   ...       0.18 
freq.     447.19  E(vib)   ...       0.17 
freq.     447.64  E(vib)   ...       0.17 
freq.     450.44  E(vib)   ...       0.17 
freq.     460.72  E(vib)   ...       0.16 
freq.     470.90  E(vib)   ...       0.15 
freq.     472.77  E(vib)   ...       0.15 
freq.     504.61  E(vib)   ...       0.14 
freq.     532.81  E(vib)   ...       0.13 
freq.     540.39  E(vib)   ...       0.12 
freq.     543.36  E(vib)   ...       0.12 
freq.     546.39  E(vib)   ...       0.12 
freq.     668.62  E(vib)   ...       0.08 
freq.     671.15  E(vib)   ...       0.08 
freq.     672.65  E(vib)   ...       0.08 
freq.     680.51  E(vib)   ...       0.08 
freq.     688.37  E(vib)   ...       0.07 
freq.     696.69  E(vib)   ...       0.07 
freq.     718.55  E(vib)   ...       0.07 
freq.     725.74  E(vib)   ...       0.06 
freq.     729.75  E(vib)   ...       0.06 
freq.     757.17  E(vib)   ...       0.06 
freq.     761.10  E(vib)   ...       0.06 
freq.     769.17  E(vib)   ...       0.06 
freq.     814.66  E(vib)   ...       0.05 
freq.     820.73  E(vib)   ...       0.05 
freq.     826.77  E(vib)   ...       0.04 
freq.     857.79  E(vib)   ...       0.04 
freq.     862.67  E(vib)   ...       0.04 
freq.     868.30  E(vib)   ...       0.04 
freq.     911.01  E(vib)   ...       0.03 
freq.     918.65  E(vib)   ...       0.03 
freq.     933.88  E(vib)   ...       0.03 
freq.     975.50  E(vib)   ...       0.03 
freq.     993.78  E(vib)   ...       0.02 
freq.    1014.11  E(vib)   ...       0.02 
freq.    1014.29  E(vib)   ...       0.02 
freq.    1017.24  E(vib)   ...       0.02 
freq.    1055.84  E(vib)   ...       0.02 
freq.    1060.51  E(vib)   ...       0.02 
freq.    1061.58  E(vib)   ...       0.02 
freq.    1063.59  E(vib)   ...       0.02 
freq.    1077.31  E(vib)   ...       0.02 
freq.    1080.92  E(vib)   ...       0.02 
freq.    1085.44  E(vib)   ...       0.02 
freq.    1125.82  E(vib)   ...       0.01 
freq.    1126.12  E(vib)   ...       0.01 
freq.    1126.99  E(vib)   ...       0.01 
freq.    1176.76  E(vib)   ...       0.01 
freq.    1177.50  E(vib)   ...       0.01 
freq.    1177.77  E(vib)   ...       0.01 
freq.    1199.35  E(vib)   ...       0.01 
freq.    1203.76  E(vib)   ...       0.01 
freq.    1209.23  E(vib)   ...       0.01 
freq.    1307.61  E(vib)   ...       0.01 
freq.    1314.52  E(vib)   ...       0.01 
freq.    1316.03  E(vib)   ...       0.01 
freq.    1335.58  E(vib)   ...       0.01 
freq.    1345.68  E(vib)   ...       0.01 
freq.    1358.29  E(vib)   ...       0.01 
freq.    1375.25  E(vib)   ...       0.01 
freq.    1378.17  E(vib)   ...       0.01 
freq.    1391.29  E(vib)   ...       0.00 
freq.    1488.35  E(vib)   ...       0.00 
freq.    1489.80  E(vib)   ...       0.00 
freq.    1490.85  E(vib)   ...       0.00 
freq.    1517.22  E(vib)   ...       0.00 
freq.    1522.32  E(vib)   ...       0.00 
freq.    1523.46  E(vib)   ...       0.00 
freq.    1622.84  E(vib)   ...       0.00 
freq.    1640.88  E(vib)   ...       0.00 
freq.    1643.41  E(vib)   ...       0.00 
freq.    1645.23  E(vib)   ...       0.00 
freq.    1673.70  E(vib)   ...       0.00 
freq.    1681.06  E(vib)   ...       0.00 
freq.    1681.45  E(vib)   ...       0.00 
freq.    1789.90  E(vib)   ...       0.00 
freq.    1801.11  E(vib)   ...       0.00 
freq.    1817.33  E(vib)   ...       0.00 
freq.    3202.40  E(vib)   ...       0.00 
freq.    3225.80  E(vib)   ...       0.00 
freq.    3233.38  E(vib)   ...       0.00 
freq.    3234.72  E(vib)   ...       0.00 
freq.    3248.67  E(vib)   ...       0.00 
freq.    3252.41  E(vib)   ...       0.00 
freq.    3253.41  E(vib)   ...       0.00 
freq.    3260.14  E(vib)   ...       0.00 
freq.    3261.94  E(vib)   ...       0.00 
freq.    3264.33  E(vib)   ...       0.00 
freq.    3264.53  E(vib)   ...       0.00 
freq.    3267.01  E(vib)   ...       0.00 
freq.    3673.56  E(vib)   ...       0.00 
freq.    3874.54  E(vib)   ...       0.00 

------------
INNER ENERGY
------------

The inner energy is: U= E(el) + E(ZPE) + E(vib) + E(rot) + E(trans)
    E(el)   - is the total energy from the electronic structure calculation
              = E(kin-el) + E(nuc-el) + E(el-el) + E(nuc-nuc)
    E(ZPE)  - the the zero temperature vibrational energy from the frequency calculation
    E(vib)  - the the finite temperature correction to E(ZPE) due to population
              of excited vibrational states
    E(rot)  - is the rotational thermal energy
    E(trans)- is the translational thermal energy

Summary of contributions to the inner energy U:
Electronic energy                ...  -3489.21538155 Eh
Zero point energy                ...      0.30898232 Eh     193.89 kcal/mol
Thermal vibrational correction   ...      0.02055542 Eh      12.90 kcal/mol
Thermal rotational correction    ...      0.00141627 Eh       0.89 kcal/mol
Thermal translational correction ...      0.00141627 Eh       0.89 kcal/mol
-----------------------------------------------------------------------
Total thermal energy                  -3488.88301127 Eh


Summary of corrections to the electronic energy:
(perhaps to be used in another calculation)
Total thermal correction                  0.02338796 Eh      14.68 kcal/mol
Non-thermal (ZPE) correction              0.30898232 Eh     193.89 kcal/mol
-----------------------------------------------------------------------
Total correction                          0.33237028 Eh     208.57 kcal/mol


--------
ENTHALPY
--------

The enthalpy is H = U + kB*T
                kB is Boltzmann's constant
Total free energy                 ...  -3488.88301127 Eh 
Thermal Enthalpy correction       ...      0.00094421 Eh       0.59 kcal/mol
-----------------------------------------------------------------------
Total Enthalpy                    ...  -3488.88206706 Eh


Note: Only C1 symmetry has been detected, increase convergence thresholds 
      if your molecule has a higher symmetry. Symmetry factor of 1.0 is   
      used for the rotational entropy correction. 
 

Note: Rotational entropy computed according to Herzberg 
Infrared and Raman Spectra, Chapter V,1, Van Nostrand Reinhold, 1945 
Point Group:  C1, Symmetry Number:   1  
Rotational constants in cm-1:     0.005029     0.002249     0.002097 

Vibrational entropy computed according to the QRRHO of S. Grimme
Chem.Eur.J. 2012 18 9955


-------
ENTROPY
-------

The entropy contributions are T*S = T*(S(el)+S(vib)+S(rot)+S(trans))
     S(el)   - electronic entropy
     S(vib)  - vibrational entropy
     S(rot)  - rotational entropy
     S(trans)- translational entropy
The entropies will be listed as multiplied by the temperature to get
units of energy

Electronic entropy                ...      0.00130891 Eh      0.82 kcal/mol
Vibrational entropy               ...      0.03594825 Eh     22.56 kcal/mol
Rotational entropy                ...      0.01779936 Eh     11.17 kcal/mol
Translational entropy             ...      0.02118112 Eh     13.29 kcal/mol
-----------------------------------------------------------------------
Final entropy term                ...      0.07623765 Eh     47.84 kcal/mol

In case the symmetry of your molecule has not been determined correctly
or in case you have a reason to use a different symmetry number we print 
out the resulting rotational entropy values for sn=1,12 :
 --------------------------------------------------------
|  sn= 1 | S(rot)=       0.01779936 Eh     11.17 kcal/mol|
|  sn= 2 | S(rot)=       0.01714490 Eh     10.76 kcal/mol|
|  sn= 3 | S(rot)=       0.01676207 Eh     10.52 kcal/mol|
|  sn= 4 | S(rot)=       0.01649045 Eh     10.35 kcal/mol|
|  sn= 5 | S(rot)=       0.01627976 Eh     10.22 kcal/mol|
|  sn= 6 | S(rot)=       0.01610761 Eh     10.11 kcal/mol|
|  sn= 7 | S(rot)=       0.01596207 Eh     10.02 kcal/mol|
|  sn= 8 | S(rot)=       0.01583599 Eh      9.94 kcal/mol|
|  sn= 9 | S(rot)=       0.01572478 Eh      9.87 kcal/mol|
|  sn=10 | S(rot)=       0.01562530 Eh      9.81 kcal/mol|
|  sn=11 | S(rot)=       0.01553531 Eh      9.75 kcal/mol|
|  sn=12 | S(rot)=       0.01545316 Eh      9.70 kcal/mol|
 --------------------------------------------------------


-------------------
GIBBS FREE ENERGY
-------------------

The Gibbs free energy is G = H - T*S

Total enthalpy                    ...  -3488.88206706 Eh 
Total entropy correction          ...     -0.07623765 Eh    -47.84 kcal/mol
-----------------------------------------------------------------------
Final Gibbs free energy         ...  -3488.95830470 Eh

For completeness - the Gibbs free energy minus the electronic energy
G-E(el)                           ...      0.25707685 Eh    161.32 kcal/mol


Timings for individual modules:

Sum of individual times         ...     3349.590 sec (=  55.826 min)
GTO integral calculation        ...        0.949 sec (=   0.016 min)   0.0 %
SCF iterations                  ...      143.922 sec (=   2.399 min)   4.3 %
Analytical frequency calculation...     3204.718 sec (=  53.412 min)  95.7 %
                             ****ORCA TERMINATED NORMALLY****
TOTAL RUN TIME: 0 days 0 hours 55 minutes 50 seconds 196 msec
