
                                 *****************
                                 * O   R   C   A *
                                 *****************

                                            #,                                       
                                            ###                                      
                                            ####                                     
                                            #####                                    
                                            ######                                   
                                           ########,                                 
                                     ,,################,,,,,                         
                               ,,#################################,,                 
                          ,,##########################################,,             
                       ,#########################################, ''#####,          
                    ,#############################################,,   '####,        
                  ,##################################################,,,,####,       
                ,###########''''           ''''###############################       
              ,#####''   ,,,,##########,,,,          '''####'''          '####       
            ,##' ,,,,###########################,,,                        '##       
           ' ,,###''''                  '''############,,,                           
         ,,##''                                '''############,,,,        ,,,,,,###''
      ,#''                                            '''#######################'''  
     '                                                          ''''####''''         
             ,#######,   #######,   ,#######,      ##                                
            ,#'     '#,  ##    ##  ,#'     '#,    #''#        ######   ,####,        
            ##       ##  ##   ,#'  ##            #'  '#       #        #'  '#        
            ##       ##  #######   ##           ,######,      #####,   #    #        
            '#,     ,#'  ##    ##  '#,     ,#' ,#      #,         ##   #,  ,#        
             '#######'   ##     ##  '#######'  #'      '#     #####' # '####'        



                  #######################################################
                  #                        -***-                        #
                  #          Department of theory and spectroscopy      #
                  #    Directorship and core code : Frank Neese         #
                  #        Max Planck Institute fuer Kohlenforschung    #
                  #                Kaiser Wilhelm Platz 1               #
                  #                 D-45470 Muelheim/Ruhr               #
                  #                      Germany                        #
                  #                                                     #
                  #                  All rights reserved                #
                  #                        -***-                        #
                  #######################################################


                         Program Version 5.0.4 -  RELEASE  -


 With contributions from (in alphabetic order):
   Daniel Aravena         : Magnetic Suceptibility
   Michael Atanasov       : Ab Initio Ligand Field Theory (pilot matlab implementation)
   Alexander A. Auer      : GIAO ZORA, VPT2 properties, NMR spectrum
   Ute Becker             : Parallelization
   Giovanni Bistoni       : ED, misc. LED, open-shell LED, HFLD
   Martin Brehm           : Molecular dynamics
   Dmytro Bykov           : SCF Hessian
   Vijay G. Chilkuri      : MRCI spin determinant printing, contributions to CSF-ICE
   Dipayan Datta          : RHF DLPNO-CCSD density
   Achintya Kumar Dutta   : EOM-CC, STEOM-CC
   Dmitry Ganyushin       : Spin-Orbit,Spin-Spin,Magnetic field MRCI
   Miquel Garcia          : C-PCM and meta-GGA Hessian, CC/C-PCM, Gaussian charge scheme
   Yang Guo               : DLPNO-NEVPT2, F12-NEVPT2, CIM, IAO-localization
   Andreas Hansen         : Spin unrestricted coupled pair/coupled cluster methods
   Benjamin Helmich-Paris : MC-RPA, TRAH-SCF, COSX integrals
   Lee Huntington         : MR-EOM, pCC
   Robert Izsak           : Overlap fitted RIJCOSX, COSX-SCS-MP3, EOM
   Marcus Kettner         : VPT2
   Christian Kollmar      : KDIIS, OOCD, Brueckner-CCSD(T), CCSD density, CASPT2, CASPT2-K
   Simone Kossmann        : Meta GGA functionals, TD-DFT gradient, OOMP2, MP2 Hessian
   Martin Krupicka        : Initial AUTO-CI
   Lucas Lang             : DCDCAS
   Marvin Lechner         : AUTO-CI (C++ implementation), FIC-MRCC
   Dagmar Lenk            : GEPOL surface, SMD
   Dimitrios Liakos       : Extrapolation schemes; Compound Job, initial MDCI parallelization
   Dimitrios Manganas     : Further ROCIS development; embedding schemes
   Dimitrios Pantazis     : SARC Basis sets
   Anastasios Papadopoulos: AUTO-CI, single reference methods and gradients
   Taras Petrenko         : DFT Hessian,TD-DFT gradient, ASA, ECA, R-Raman, ABS, FL, XAS/XES, NRVS
   Peter Pinski           : DLPNO-MP2, DLPNO-MP2 Gradient
   Christoph Reimann      : Effective Core Potentials
   Marius Retegan         : Local ZFS, SOC
   Christoph Riplinger    : Optimizer, TS searches, QM/MM, DLPNO-CCSD(T), (RO)-DLPNO pert. Triples
   Tobias Risthaus        : Range-separated hybrids, TD-DFT gradient, RPA, STAB
   Michael Roemelt        : Original ROCIS implementation
   Masaaki Saitow         : Open-shell DLPNO-CCSD energy and density
   Barbara Sandhoefer     : DKH picture change effects
   Avijit Sen             : IP-ROCIS
   Kantharuban Sivalingam : CASSCF convergence, NEVPT2, FIC-MRCI
   Bernardo de Souza      : ESD, SOC TD-DFT
   Georgi Stoychev        : AutoAux, RI-MP2 NMR, DLPNO-MP2 response
   Willem Van den Heuvel  : Paramagnetic NMR
   Boris Wezisla          : Elementary symmetry handling
   Frank Wennmohs         : Technical directorship


 We gratefully acknowledge several colleagues who have allowed us to
 interface, adapt or use parts of their codes:
   Stefan Grimme, W. Hujo, H. Kruse, P. Pracht,  : VdW corrections, initial TS optimization,
                  C. Bannwarth, S. Ehlert          DFT functionals, gCP, sTDA/sTD-DF
   Ed Valeev, F. Pavosevic, A. Kumar             : LibInt (2-el integral package), F12 methods
   Garnet Chan, S. Sharma, J. Yang, R. Olivares  : DMRG
   Ulf Ekstrom                                   : XCFun DFT Library
   Mihaly Kallay                                 : mrcc  (arbitrary order and MRCC methods)
   Jiri Pittner, Ondrej Demel                    : Mk-CCSD
   Frank Weinhold                                : gennbo (NPA and NBO analysis)
   Christopher J. Cramer and Donald G. Truhlar   : smd solvation model
   Lars Goerigk                                  : TD-DFT with DH, B97 family of functionals
   V. Asgeirsson, H. Jonsson                     : NEB implementation
   FAccTs GmbH                                   : IRC, NEB, NEB-TS, DLPNO-Multilevel, CI-OPT
                                                   MM, QMMM, 2- and 3-layer-ONIOM, Crystal-QMMM,
                                                   LR-CPCM, SF, NACMEs, symmetry and pop. for TD-DFT,
                                                   nearIR, NL-DFT gradient (VV10), updates on ESD,
                                                   ML-optimized integration grids
   S Lehtola, MJT Oliveira, MAL Marques          : LibXC Library
   Liviu Ungur et al                             : ANISO software


 Your calculation uses the libint2 library for the computation of 2-el integrals
 For citations please refer to: http://libint.valeyev.net

 Your ORCA version has been built with support for libXC version: 5.1.0
 For citations please refer to: https://tddft.org/programs/libxc/

 This ORCA versions uses:
   CBLAS   interface :  Fast vector & matrix operations
   LAPACKE interface :  Fast linear algebra routines
   SCALAPACK package :  Parallel linear algebra routines
   Shared memory     :  Shared parallel matrices
   BLAS/LAPACK       :  OpenBLAS 0.3.15  USE64BITINT DYNAMIC_ARCH NO_AFFINITY Zen SINGLE_THREADED
        Core in use  :  Zen
   Copyright (c) 2011-2014, The OpenBLAS Project


Your calculation utilizes the atom-pairwise dispersion correction
with the Becke-Johnson damping scheme (D3BJ)
Cite in your paper:
S.Grimme, S.Ehrlich, L.Goerigk, J Comput Chem, (2011), 32, 1456–1465 
S.Grimme, J.Antony, S.Ehrlich and H.Krieg, J.Chem.Phys., 132, (2010), 154104 
   

================================================================================

----- Orbital basis set information -----
Your calculation utilizes the basis: def2-TZVPP
   F. Weigend and R. Ahlrichs, Phys. Chem. Chem. Phys. 7, 3297 (2005).

----- AuxJ basis set information -----
Your calculation utilizes the auxiliary basis: def2/J
   F. Weigend, Phys. Chem. Chem. Phys. 8, 1057 (2006).

================================================================================
                                        WARNINGS
                       Please study these warnings very carefully!
================================================================================


WARNING: your system is open-shell and RHF/RKS was chosen
  ===> : WILL SWITCH to UHF/UKS


WARNING: Geometry Optimization
  ===> : Switching off AutoStart
         For restart on a previous wavefunction, please use MOREAD

INFO   : the flag for use of the SHARK integral package has been found!

================================================================================
                                       INPUT FILE
================================================================================
NAME = picolinate.inp
|  1> # avogadro generated ORCA file
|  2> # C18H12N3O6Cr | Geometry Optimization | B3LYP/6-31G(d)
|  3> # 
|  4> ! B3LYP D3BJ def2-TZVPP TightSCF TightOpt Opt Freq
|  5> 
|  6> %maxcore 1024
|  7> 
|  8> %pal
|  9>    nprocs 16
| 10> end
| 11> 
| 12> * xyz 0 4
| 13>    Cr     5.041501    0.026138   -0.216555
| 14>    O      4.271106   -0.210090   -1.991355
| 15>    O      5.560959   -0.133177    1.640716
| 16>    O      6.553482    1.048538   -0.807722
| 17>    O      2.580750   -1.078735   -3.195130
| 18>    O      6.672283   -1.389751    3.135699
| 19>    O      7.290073    3.117394   -1.285564
| 20>    N      3.266502   -0.997434    0.254350
| 21>    N      6.166756   -1.692437   -0.330999
| 22>    N      4.229879    1.927180   -0.005185
| 23>    C      2.534924   -1.284331   -0.833650
| 24>    C      6.718707   -2.020937    0.846491
| 25>    C      5.103516    2.862158   -0.410934
| 26>    C      3.142458   -0.834417   -2.147147
| 27>    C      6.317613   -1.132737    2.005034
| 28>    C      6.446317    2.343440   -0.888178
| 29>    C      2.824911   -1.354808    1.465951
| 30>    C      6.458785   -2.392112   -1.429965
| 31>    C      3.026031    2.295750    0.440230
| 32>    C      1.322133   -1.947575   -0.748308
| 33>    C      7.584841   -3.092975    0.971379
| 34>    C      4.792944    4.211731   -0.387243
| 35>    C      1.619782   -2.019578    1.627810
| 36>    C      7.323147   -3.474835   -1.381189
| 37>    C      2.645701    3.626000    0.495875
| 38>    C      0.856704   -2.321195    0.504475
| 39>    C      7.892355   -3.831079   -0.163698
| 40>    C      3.544117    4.599800    0.073217
| 41>    H      3.459914   -1.090436    2.299591
| 42>    H      5.992288   -2.058495   -2.346122
| 43>    H      2.361998    1.504337    0.756302
| 44>    H      0.782977   -2.151939   -1.661518
| 45>    H      7.996435   -3.314622    1.944799
| 46>    H      5.538694    4.913957   -0.729033
| 47>    H      1.291558   -2.294835    2.619515
| 48>    H      7.545663   -4.021427   -2.285878
| 49>    H      1.664020    3.888225    0.862363
| 50>    H     -0.086426   -2.840642    0.606953
| 51>    H      8.571410   -4.670695   -0.103317
| 52>    H      3.271439    5.645903    0.104444
| 53> *
| 54> 
| 55> 
| 56> 
| 57>                          ****END OF INPUT****
================================================================================

                       *****************************
                       * Geometry Optimization Run *
                       *****************************

Geometry optimization settings:
Update method            Update   .... BFGS
Choice of coordinates    CoordSys .... Z-matrix Internals
Initial Hessian          InHess   .... Almoef's Model

Convergence Tolerances:
Energy Change            TolE     ....  1.0000e-06 Eh
Max. Gradient            TolMAXG  ....  1.0000e-04 Eh/bohr
RMS Gradient             TolRMSG  ....  3.0000e-05 Eh/bohr
Max. Displacement        TolMAXD  ....  1.0000e-03 bohr
RMS Displacement         TolRMSD  ....  6.0000e-04 bohr
Strict Convergence                ....  False
------------------------------------------------------------------------------
                        ORCA OPTIMIZATION COORDINATE SETUP
------------------------------------------------------------------------------

The optimization will be done in new redundant internal coordinates
Making redundant internal coordinates   ...  (new redundants) done
Evaluating the initial hessian          ...  (Almloef) done
Evaluating the coordinates              ...  done
Calculating the B-matrix                .... done
Calculating the G-matrix                .... done
Diagonalizing the G-matrix              .... done
Small eigenvalue found = 2.164e-02
Small eigenvalue found = 2.739e-02
The first mode is                       ....  228
The number of degrees of freedom        ....  114

    -----------------------------------------------------------------
                    Redundant Internal Coordinates


    -----------------------------------------------------------------
         Definition                    Initial Value    Approx d2E/dq
    -----------------------------------------------------------------
      1. B(O   1,Cr  0)                  1.9492         0.725931   
      2. B(O   2,Cr  0)                  1.9351         0.764368   
      3. B(O   3,Cr  0)                  1.9186         0.812305   
      4. B(N   7,Cr  0)                  2.1024         0.413444   
      5. B(N   8,Cr  0)                  2.0574         0.487803   
      6. B(N   9,Cr  0)                  2.0778         0.452496   
      7. B(C  10,N   7)                  1.3421         0.667237   
      8. B(C  11,N   8)                  1.3413         0.669264   
      9. B(C  12,N   9)                  1.3424         0.666510   
     10. B(C  13,C  10)                  1.5155         0.393988   
     11. B(C  13,O   4)                  1.2139         1.068766   
     12. B(C  13,O   1)                  1.2992         0.781183   
     13. B(C  14,O   5)                  1.2125         1.073998   
     14. B(C  14,O   2)                  1.3055         0.763244   
     15. B(C  14,Cr  0)                  2.8119         0.034062   
     16. B(C  14,C  11)                  1.5139         0.396286   
     17. B(C  15,C  12)                  1.5166         0.392487   
     18. B(C  15,O   6)                  1.2120         1.076288   
     19. B(C  15,O   3)                  1.3018         0.773687   
     20. B(C  15,Cr  0)                  2.7919         0.036668   
     21. B(C  16,N   7)                  1.3382         0.676969   
     22. B(C  17,N   8)                  1.3351         0.684587   
     23. B(C  18,N   9)                  1.3355         0.683706   
     24. B(C  19,C  10)                  1.3849         0.636537   
     25. B(C  20,C  11)                  1.3839         0.639065   
     26. B(C  21,C  12)                  1.3851         0.636262   
     27. B(C  22,C  16)                  1.3858         0.634501   
     28. B(C  23,C  17)                  1.3863         0.633379   
     29. B(C  24,C  18)                  1.3847         0.637150   
     30. B(C  25,C  22)                  1.3911         0.622291   
     31. B(C  25,C  19)                  1.3877         0.630123   
     32. B(C  26,C  23)                  1.3904         0.623896   
     33. B(C  26,C  20)                  1.3884         0.628390   
     34. B(C  27,C  24)                  1.3907         0.623166   
     35. B(C  27,C  21)                  1.3864         0.633043   
     36. B(H  28,C  16)                  1.0808         0.372511   
     37. B(H  29,C  17)                  1.0809         0.372393   
     38. B(H  30,C  18)                  1.0804         0.373082   
     39. B(H  31,C  19)                  1.0800         0.373571   
     40. B(H  32,C  20)                  1.0799         0.373776   
     41. B(H  33,C  21)                  1.0799         0.373775   
     42. B(H  34,C  22)                  1.0803         0.373209   
     43. B(H  35,C  23)                  1.0802         0.373360   
     44. B(H  36,C  24)                  1.0802         0.373338   
     45. B(H  37,C  25)                  1.0816         0.371409   
     46. B(H  38,C  26)                  1.0815         0.371475   
     47. B(H  39,C  27)                  1.0815         0.371511   
     48. A(O   2,Cr  0,O   3)           97.3574         0.596066   
     49. A(O   2,Cr  0,C  14)           23.9315         0.337792   
     50. A(O   3,Cr  0,C  15)           24.0777         0.345485   
     51. A(N   9,Cr  0,C  14)          118.2918         0.309954   
     52. A(O   3,Cr  0,N   9)           81.4669         0.539329   
     53. A(O   1,Cr  0,C  15)           94.6132         0.339041   
     54. A(O   2,Cr  0,N   9)           94.7348         0.533172   
     55. A(O   2,Cr  0,N   8)           80.6653         0.540790   
     56. A(O   3,Cr  0,N   8)           89.8266         0.547053   
     57. A(N   7,Cr  0,C  15)          151.9833         0.309128   
     58. A(O   1,Cr  0,C  14)          148.0824         0.334904   
     59. A(N   7,Cr  0,N   9)           95.3287         0.475496   
     60. A(O   2,Cr  0,C  15)           99.4478         0.341978   
     61. A(C  14,Cr  0,C  15)          107.6848         0.214844   
     62. A(N   9,Cr  0,C  15)           57.4265         0.313672   
     63. A(O   1,Cr  0,N   9)           92.8157         0.528015   
     64. A(N   8,Cr  0,C  14)           56.7341         0.313744   
     65. A(O   3,Cr  0,N   7)          173.6274         0.530223   
     66. A(O   1,Cr  0,N   7)           79.1201         0.519138   
     67. A(O   1,Cr  0,O   3)           95.4802         0.590179   
     68. A(N   7,Cr  0,N   8)           93.8726         0.482125   
     69. A(O   3,Cr  0,C  14)           96.0512         0.341241   
     70. A(N   8,Cr  0,N   9)          169.5935         0.490238   
     71. A(O   2,Cr  0,N   7)           88.3713         0.524190   
     72. A(O   1,Cr  0,N   8)           93.6859         0.535545   
     73. A(N   7,Cr  0,C  14)           90.3174         0.305486   
     74. A(O   1,Cr  0,O   2)          165.9390         0.583326   
     75. A(N   8,Cr  0,C  15)          113.8752         0.317525   
     76. A(Cr  0,O   1,C  13)          120.7164         0.518091   
     77. A(Cr  0,O   2,C  14)          119.1075         0.520854   
     78. A(Cr  0,O   3,C  15)          118.9626         0.528190   
     79. A(C  10,N   7,C  16)          119.8031         0.441033   
     80. A(Cr  0,N   7,C  16)          127.6929         0.454713   
     81. A(Cr  0,N   7,C  10)          112.5015         0.453516   
     82. A(Cr  0,N   8,C  17)          127.0974         0.469625   
     83. A(Cr  0,N   8,C  11)          112.3844         0.467680   
     84. A(C  11,N   8,C  17)          120.2813         0.442169   
     85. A(C  12,N   9,C  18)          119.6858         0.441736   
     86. A(Cr  0,N   9,C  18)          129.6833         0.463098   
     87. A(Cr  0,N   9,C  12)          110.6267         0.460947   
     88. A(C  13,C  10,C  19)          123.1360         0.402272   
     89. A(N   7,C  10,C  19)          121.9892         0.439041   
     90. A(N   7,C  10,C  13)          114.8740         0.403024   
     91. A(C  14,C  11,C  20)          123.4526         0.402966   
     92. A(N   8,C  11,C  20)          121.7701         0.439596   
     93. A(N   8,C  11,C  14)          114.7773         0.403654   
     94. A(N   9,C  12,C  21)          121.8403         0.438920   
     95. A(N   9,C  12,C  15)          115.6660         0.402676   
     96. A(C  15,C  12,C  21)          122.4932         0.401971   
     97. A(O   1,C  13,O   4)          127.0310         0.493546   
     98. A(O   4,C  13,C  10)          120.1989         0.438360   
     99. A(O   1,C  13,C  10)          112.7670         0.414433   
    100. A(Cr  0,C  14,O   2)           36.9610         0.303827   
    101. A(O   5,C  14,C  11)          120.7793         0.439207   
    102. A(O   2,C  14,C  11)          112.9041         0.413153   
    103. A(Cr  0,C  14,C  11)           75.9615         0.275745   
    104. A(O   2,C  14,O   5)          126.3015         0.491869   
    105. A(Cr  0,C  14,O   5)          163.1000         0.321094   
    106. A(O   6,C  15,C  12)          120.0785         0.438612   
    107. A(O   3,C  15,C  12)          113.1824         0.413443   
    108. A(Cr  0,C  15,C  12)           76.2705         0.278473   
    109. A(O   3,C  15,O   6)          126.7382         0.493305   
    110. A(Cr  0,C  15,O   6)          163.5849         0.325112   
    111. A(Cr  0,C  15,O   3)           36.9598         0.308114   
    112. A(C  22,C  16,H  28)          122.5607         0.356336   
    113. A(N   7,C  16,H  28)          116.0506         0.358053   
    114. A(N   7,C  16,C  22)          121.3882         0.439936   
    115. A(C  23,C  17,H  29)          122.6834         0.356210   
    116. A(N   8,C  17,H  29)          116.2018         0.358716   
    117. A(N   8,C  17,C  23)          121.1122         0.440685   
    118. A(C  24,C  18,H  30)          121.5454         0.356681   
    119. A(N   9,C  18,H  30)          116.7095         0.358750   
    120. A(N   9,C  18,C  24)          121.7451         0.441055   
    121. A(C  25,C  19,H  31)          123.0230         0.356089   
    122. A(C  10,C  19,H  31)          118.4037         0.356702   
    123. A(C  10,C  19,C  25)          118.5731         0.437403   
    124. A(C  26,C  20,H  32)          122.9159         0.355956   
    125. A(C  11,C  20,H  32)          118.6149         0.356976   
    126. A(C  11,C  20,C  26)          118.4680         0.437498   
    127. A(C  27,C  21,H  33)          123.0355         0.356402   
    128. A(C  12,C  21,H  33)          118.2534         0.356709   
    129. A(C  12,C  21,C  27)          118.7111         0.437733   
    130. A(C  25,C  22,H  34)          121.2922         0.355276   
    131. A(C  16,C  22,H  34)          119.5825         0.356449   
    132. A(C  16,C  22,C  25)          119.1252         0.436166   
    133. A(C  26,C  23,H  35)          121.2927         0.355455   
    134. A(C  17,C  23,H  35)          119.6169         0.356367   
    135. A(C  17,C  23,C  26)          119.0897         0.436229   
    136. A(C  27,C  24,H  36)          121.3481         0.355381   
    137. A(C  18,C  24,H  36)          119.7676         0.356722   
    138. A(C  18,C  24,C  27)          118.8843         0.436604   
    139. A(C  22,C  25,H  37)          120.3942         0.354984   
    140. A(C  19,C  25,H  37)          120.4847         0.355738   
    141. A(C  19,C  25,C  22)          119.1211         0.435622   
    142. A(C  23,C  26,H  38)          120.3202         0.355150   
    143. A(C  20,C  26,H  38)          120.4054         0.355583   
    144. A(C  20,C  26,C  23)          119.2735         0.435608   
    145. A(C  24,C  27,H  39)          120.3740         0.355086   
    146. A(C  21,C  27,H  39)          120.4931         0.356034   
    147. A(C  21,C  27,C  24)          119.1329         0.436096   
    148. D(C  13,O   1,Cr  0,C  15)   -153.3773         0.004453   
    149. D(C  13,O   1,Cr  0,O   2)     26.6034         0.004453   
    150. D(C  13,O   1,Cr  0,N   7)     -0.9551         0.004453   
    151. D(C  13,O   1,Cr  0,N   9)    -95.8444         0.004453   
    152. D(C  13,O   1,Cr  0,N   8)     92.2859         0.004453   
    153. D(C  13,O   1,Cr  0,O   3)   -177.5346         0.004453   
    154. D(C  13,O   1,Cr  0,C  14)     71.7127         0.004453   
    155. D(C  14,O   2,Cr  0,C  15)   -112.5956         0.004779   
    156. D(C  14,O   2,Cr  0,N   8)      0.2634         0.004779   
    157. D(C  14,O   2,Cr  0,N   7)     94.4581         0.004779   
    158. D(C  14,O   2,Cr  0,O   1)     67.4239         0.004779   
    159. D(C  14,O   2,Cr  0,N   9)   -170.3283         0.004779   
    160. D(C  14,O   2,Cr  0,O   3)    -88.3432         0.004779   
    161. D(C  15,O   3,Cr  0,O   2)    -96.7037         0.005210   
    162. D(C  15,O   3,Cr  0,N   7)     57.1836         0.005210   
    163. D(C  15,O   3,Cr  0,O   1)     89.0457         0.005210   
    164. D(C  15,O   3,Cr  0,C  14)   -120.7671         0.005210   
    165. D(C  15,O   3,Cr  0,N   9)     -2.9891         0.005210   
    166. D(C  15,O   3,Cr  0,N   8)   -177.2681         0.005210   
    167. D(C  16,N   7,Cr  0,O   3)   -147.0691         0.002509   
    168. D(C  10,N   7,Cr  0,C  14)   -149.6972         0.002509   
    169. D(C  10,N   7,Cr  0,C  15)     79.2208         0.002509   
    170. D(C  10,N   7,Cr  0,O   1)     -0.0088         0.002509   
    171. D(C  16,N   7,Cr  0,O   2)      7.0380         0.002509   
    172. D(C  10,N   7,Cr  0,O   2)   -173.5522         0.002509   
    173. D(C  16,N   7,Cr  0,O   1)   -179.4185         0.002509   
    174. D(C  10,N   7,Cr  0,N   9)     91.8429         0.002509   
    175. D(C  10,N   7,Cr  0,O   3)     32.3407         0.002509   
    176. D(C  16,N   7,Cr  0,N   9)    -87.5669         0.002509   
    177. D(C  10,N   7,Cr  0,N   8)    -93.0241         0.002509   
    178. D(C  16,N   7,Cr  0,C  15)   -100.1890         0.002509   
    179. D(C  16,N   7,Cr  0,C  14)     30.8930         0.002509   
    180. D(C  16,N   7,Cr  0,N   8)     87.5662         0.002509   
    181. D(C  17,N   8,Cr  0,C  14)   -176.8900         0.002902   
    182. D(C  17,N   8,Cr  0,N   9)   -112.6084         0.002902   
    183. D(C  17,N   8,Cr  0,N   7)     95.2745         0.002902   
    184. D(C  17,N   8,Cr  0,O   2)   -177.0177         0.002902   
    185. D(C  17,N   8,Cr  0,O   1)     15.9482         0.002902   
    186. D(C  11,N   8,Cr  0,C  15)     93.6123         0.002902   
    187. D(C  11,N   8,Cr  0,C  14)     -2.5269         0.002902   
    188. D(C  11,N   8,Cr  0,N   9)     61.7547         0.002902   
    189. D(C  17,N   8,Cr  0,O   3)    -79.5323         0.002902   
    190. D(C  11,N   8,Cr  0,N   7)    -90.3624         0.002902   
    191. D(C  11,N   8,Cr  0,O   3)     94.8308         0.002902   
    192. D(C  11,N   8,Cr  0,O   2)     -2.6547         0.002902   
    193. D(C  17,N   8,Cr  0,C  15)    -80.7507         0.002902   
    194. D(C  11,N   8,Cr  0,O   1)   -169.6888         0.002902   
    195. D(C  18,N   9,Cr  0,O   3)   -178.6445         0.002707   
    196. D(C  18,N   9,Cr  0,C  14)    -86.3350         0.002707   
    197. D(C  18,N   9,Cr  0,N   7)      6.9052         0.002707   
    198. D(C  18,N   9,Cr  0,C  15)    179.9089         0.002707   
    199. D(C  18,N   9,Cr  0,O   2)    -81.8962         0.002707   
    200. D(C  18,N   9,Cr  0,O   1)     86.2317         0.002707   
    201. D(C  12,N   9,Cr  0,C  15)      0.6654         0.002707   
    202. D(C  12,N   9,Cr  0,O   2)     98.8603         0.002707   
    203. D(C  12,N   9,Cr  0,O   1)    -93.0118         0.002707   
    204. D(C  12,N   9,Cr  0,O   3)      2.1120         0.002707   
    205. D(C  18,N   9,Cr  0,N   8)   -145.1498         0.002707   
    206. D(C  12,N   9,Cr  0,N   8)     35.6067         0.002707   
    207. D(C  12,N   9,Cr  0,C  14)     94.4214         0.002707   
    208. D(C  12,N   9,Cr  0,N   7)   -172.3383         0.002707   
    209. D(C  13,C  10,N   7,Cr  0)      0.7909         0.036504   
    210. D(C  13,C  10,N   7,C  16)   -179.7473         0.036504   
    211. D(C  19,C  10,N   7,C  16)     -0.0598         0.036504   
    212. D(C  19,C  10,N   7,Cr  0)   -179.5215         0.036504   
    213. D(C  20,C  11,N   8,C  17)     -0.9100         0.036746   
    214. D(C  20,C  11,N   8,Cr  0)   -175.7048         0.036746   
    215. D(C  14,C  11,N   8,C  17)    179.1196         0.036746   
    216. D(C  14,C  11,N   8,Cr  0)      4.3248         0.036746   
    217. D(C  21,C  12,N   9,C  18)     -0.2325         0.036417   
    218. D(C  21,C  12,N   9,Cr  0)    179.0973         0.036417   
    219. D(C  15,C  12,N   9,C  18)    179.5247         0.036417   
    220. D(C  15,C  12,N   9,Cr  0)     -1.1454         0.036417   
    221. D(O   4,C  13,C  10,C  19)     -1.8122         0.010692   
    222. D(O   4,C  13,C  10,N   7)    177.8713         0.010692   
    223. D(O   1,C  13,C  10,C  19)    178.7888         0.010692   
    224. D(O   1,C  13,C  10,N   7)     -1.5277         0.010692   
    225. D(C  10,C  13,O   1,Cr  0)      1.6038         0.046771   
    226. D(O   4,C  13,O   1,Cr  0)   -177.7455         0.046771   
    227. D(O   5,C  14,C  11,N   8)    174.4682         0.011665   
    228. D(O   2,C  14,C  11,C  20)    175.8261         0.011665   
    229. D(O   2,C  14,C  11,N   8)     -4.2042         0.011665   
    230. D(Cr  0,C  14,C  11,N   8)     -3.0145         0.011665   
    231. D(C  11,C  14,O   2,Cr  0)      1.9197         0.049114   
    232. D(O   5,C  14,O   2,Cr  0)   -176.6650         0.049114   
    233. D(C  11,C  14,Cr  0,C  15)   -105.2583         0.001508   
    234. D(C  11,C  14,Cr  0,N   9)   -167.2161         0.001508   
    235. D(C  11,C  14,Cr  0,N   8)      2.1336         0.001508   
    236. D(C  11,C  14,Cr  0,N   7)     96.5579         0.001508   
    237. D(C  11,C  14,Cr  0,O   3)    -83.6695         0.001508   
    238. D(C  11,C  14,Cr  0,O   2)   -178.1772         0.001508   
    239. D(C  11,C  14,Cr  0,O   1)     26.9303         0.001508   
    240. D(O   5,C  14,Cr  0,C  15)     82.2000         0.001508   
    241. D(O   5,C  14,Cr  0,N   9)     20.2422         0.001508   
    242. D(O   5,C  14,Cr  0,N   8)   -170.4082         0.001508   
    243. D(O   5,C  14,Cr  0,N   7)    -75.9838         0.001508   
    244. D(O   5,C  14,Cr  0,O   3)    103.7887         0.001508   
    245. D(O   5,C  14,Cr  0,O   2)      9.2810         0.001508   
    246. D(O   5,C  14,Cr  0,O   1)   -145.6114         0.001508   
    247. D(O   2,C  14,Cr  0,C  15)     72.9189         0.001508   
    248. D(O   2,C  14,Cr  0,N   9)     10.9611         0.001508   
    249. D(Cr  0,C  14,C  11,C  20)    177.0157         0.011665   
    250. D(O   2,C  14,Cr  0,N   8)   -179.6892         0.001508   
    251. D(O   2,C  14,Cr  0,N   7)    -85.2649         0.001508   
    252. D(O   2,C  14,Cr  0,O   3)     94.5077         0.001508   
    253. D(O   5,C  14,C  11,C  20)     -5.5015         0.011665   
    254. D(O   2,C  14,Cr  0,O   1)   -154.8924         0.001508   
    255. D(C  12,C  15,Cr  0,N   9)     -0.5675         0.001509   
    256. D(C  12,C  15,Cr  0,N   8)   -174.0714         0.001509   
    257. D(C  12,C  15,Cr  0,N   7)     14.3951         0.001509   
    258. D(C  12,C  15,Cr  0,O   2)    -90.1656         0.001509   
    259. D(C  12,C  15,Cr  0,O   1)     89.8296         0.001509   
    260. D(O   6,C  15,Cr  0,C  14)     71.5718         0.001509   
    261. D(O   6,C  15,Cr  0,N   9)   -175.6835         0.001509   
    262. D(O   6,C  15,Cr  0,N   8)     10.8125         0.001509   
    263. D(O   6,C  15,Cr  0,N   7)   -160.7210         0.001509   
    264. D(O   6,C  15,Cr  0,O   3)      7.8248         0.001509   
    265. D(O   6,C  15,Cr  0,O   2)     94.7183         0.001509   
    266. D(O   6,C  15,Cr  0,O   1)    -85.2864         0.001509   
    267. D(O   3,C  15,Cr  0,C  14)     63.7470         0.001509   
    268. D(O   3,C  15,Cr  0,N   9)    176.4916         0.001509   
    269. D(C  12,C  15,Cr  0,O   3)   -177.0591         0.001509   
    270. D(O   3,C  15,Cr  0,N   8)      2.9877         0.001509   
    271. D(O   3,C  15,Cr  0,N   7)   -168.5458         0.001509   
    272. D(O   3,C  15,Cr  0,O   2)     86.8935         0.001509   
    273. D(C  12,C  15,Cr  0,C  14)   -113.3121         0.001509   
    274. D(O   3,C  15,Cr  0,O   1)    -93.1113         0.001509   
    275. D(O   6,C  15,C  12,N   9)    179.2280         0.011453   
    276. D(O   3,C  15,C  12,C  21)    178.6538         0.011453   
    277. D(O   3,C  15,C  12,N   9)     -1.1018         0.011453   
    278. D(Cr  0,C  15,C  12,C  21)   -179.4232         0.011453   
    279. D(Cr  0,C  15,C  12,N   9)      0.8212         0.011453   
    280. D(C  12,C  15,O   3,Cr  0)      3.1079         0.050626   
    281. D(O   6,C  15,C  12,C  21)     -1.0164         0.011453   
    282. D(O   6,C  15,O   3,Cr  0)   -177.2482         0.050626   
    283. D(H  28,C  16,N   7,C  10)   -179.7707         0.037678   
    284. D(H  28,C  16,N   7,Cr  0)     -0.3991         0.037678   
    285. D(C  22,C  16,N   7,C  10)     -0.0209         0.037678   
    286. D(C  22,C  16,N   7,Cr  0)    179.3507         0.037678   
    287. D(H  29,C  17,N   8,C  11)   -178.8438         0.038613   
    288. D(H  29,C  17,N   8,Cr  0)     -4.8809         0.038613   
    289. D(C  23,C  17,N   8,C  11)      0.5950         0.038613   
    290. D(C  23,C  17,N   8,Cr  0)    174.5579         0.038613   
    291. D(H  30,C  18,N   9,C  12)   -179.8825         0.038504   
    292. D(H  30,C  18,N   9,Cr  0)      0.9325         0.038504   
    293. D(C  24,C  18,N   9,C  12)      0.0807         0.038504   
    294. D(C  24,C  18,N   9,Cr  0)   -179.1043         0.038504   
    295. D(H  31,C  19,C  10,C  13)     -0.1275         0.028131   
    296. D(H  31,C  19,C  10,N   7)   -179.7890         0.028131   
    297. D(C  25,C  19,C  10,C  13)    179.7479         0.028131   
    298. D(C  25,C  19,C  10,N   7)      0.0864         0.028131   
    299. D(H  32,C  20,C  11,C  14)      0.2404         0.028370   
    300. D(H  32,C  20,C  11,N   8)   -179.7273         0.028370   
    301. D(C  26,C  20,C  11,C  14)   -179.3672         0.028370   
    302. D(C  26,C  20,C  11,N   8)      0.6651         0.028370   
    303. D(H  33,C  21,C  12,C  15)      0.3887         0.028105   
    304. D(H  33,C  21,C  12,N   9)   -179.8706         0.028105   
    305. D(C  27,C  21,C  12,C  15)   -179.5625         0.028105   
    306. D(C  27,C  21,C  12,N   9)      0.1782         0.028105   
    307. D(H  34,C  22,C  16,H  28)     -0.3004         0.027940   
    308. D(H  34,C  22,C  16,N   7)    179.9664         0.027940   
    309. D(C  25,C  22,C  16,H  28)    179.8051         0.027940   
    310. D(C  25,C  22,C  16,N   7)      0.0718         0.027940   
    311. D(H  35,C  23,C  17,H  29)     -0.3501         0.027834   
    312. D(H  35,C  23,C  17,N   8)   -179.7518         0.027834   
    313. D(C  26,C  23,C  17,H  29)    179.3455         0.027834   
    314. D(C  26,C  23,C  17,N   8)     -0.0562         0.027834   
    315. D(H  36,C  24,C  18,H  30)     -0.0052         0.028189   
    316. D(H  36,C  24,C  18,N   9)   -179.9667         0.028189   
    317. D(C  27,C  24,C  18,H  30)   -179.9196         0.028189   
    318. D(C  27,C  24,C  18,N   9)      0.1189         0.028189   
    319. D(H  37,C  25,C  22,H  34)      0.0235         0.026808   
    320. D(H  37,C  25,C  22,C  16)    179.9162         0.026808   
    321. D(C  19,C  25,C  22,H  34)   -179.9355         0.026808   
    322. D(C  19,C  25,C  22,C  16)     -0.0428         0.026808   
    323. D(H  37,C  25,C  19,H  31)     -0.1227         0.027531   
    324. D(H  37,C  25,C  19,C  10)   -179.9920         0.027531   
    325. D(C  22,C  25,C  19,H  31)    179.8363         0.027531   
    326. D(C  22,C  25,C  19,C  10)     -0.0330         0.027531   
    327. D(H  38,C  26,C  23,C  17)   -179.8377         0.026955   
    328. D(C  20,C  26,C  23,H  35)    179.5160         0.026955   
    329. D(C  20,C  26,C  23,C  17)     -0.1743         0.026955   
    330. D(H  38,C  26,C  20,H  32)     -0.0445         0.027370   
    331. D(H  38,C  26,C  20,C  11)    179.5451         0.027370   
    332. D(C  23,C  26,C  20,H  32)   -179.7077         0.027370   
    333. D(H  38,C  26,C  23,H  35)     -0.1474         0.026955   
    334. D(C  23,C  26,C  20,C  11)     -0.1181         0.027370   
    335. D(H  39,C  27,C  24,H  36)     -0.0346         0.026889   
    336. D(H  39,C  27,C  24,C  18)    179.8784         0.026889   
    337. D(C  21,C  27,C  24,H  36)    179.9190         0.026889   
    338. D(C  21,C  27,C  24,C  18)     -0.1680         0.026889   
    339. D(H  39,C  27,C  21,H  33)      0.0303         0.027803   
    340. D(H  39,C  27,C  21,C  12)    179.9791         0.027803   
    341. D(C  24,C  27,C  21,H  33)   -179.9231         0.027803   
    342. D(C  24,C  27,C  21,C  12)      0.0256         0.027803   
    -----------------------------------------------------------------

Number of atoms                         .... 40
Number of degrees of freedom            .... 342

         *************************************************************
         *                GEOMETRY OPTIMIZATION CYCLE   1            *
         *************************************************************
---------------------------------
CARTESIAN COORDINATES (ANGSTROEM)
---------------------------------
  Cr     5.041501    0.026138   -0.216555
  O      4.271106   -0.210090   -1.991355
  O      5.560959   -0.133177    1.640716
  O      6.553482    1.048538   -0.807722
  O      2.580750   -1.078735   -3.195130
  O      6.672283   -1.389751    3.135699
  O      7.290073    3.117394   -1.285564
  N      3.266502   -0.997434    0.254350
  N      6.166756   -1.692437   -0.330999
  N      4.229879    1.927180   -0.005185
  C      2.534924   -1.284331   -0.833650
  C      6.718707   -2.020937    0.846491
  C      5.103516    2.862158   -0.410934
  C      3.142458   -0.834417   -2.147147
  C      6.317613   -1.132737    2.005034
  C      6.446317    2.343440   -0.888178
  C      2.824911   -1.354808    1.465951
  C      6.458785   -2.392112   -1.429965
  C      3.026031    2.295750    0.440230
  C      1.322133   -1.947575   -0.748308
  C      7.584841   -3.092975    0.971379
  C      4.792944    4.211731   -0.387243
  C      1.619782   -2.019578    1.627810
  C      7.323147   -3.474835   -1.381189
  C      2.645701    3.626000    0.495875
  C      0.856704   -2.321195    0.504475
  C      7.892355   -3.831079   -0.163698
  C      3.544117    4.599800    0.073217
  H      3.459914   -1.090436    2.299591
  H      5.992288   -2.058495   -2.346122
  H      2.361998    1.504337    0.756302
  H      0.782977   -2.151939   -1.661518
  H      7.996435   -3.314622    1.944799
  H      5.538694    4.913957   -0.729033
  H      1.291558   -2.294835    2.619515
  H      7.545663   -4.021427   -2.285878
  H      1.664020    3.888225    0.862363
  H     -0.086426   -2.840642    0.606953
  H      8.571410   -4.670695   -0.103317
  H      3.271439    5.645903    0.104444

----------------------------
CARTESIAN COORDINATES (A.U.)
----------------------------
  NO LB      ZA    FRAG     MASS         X           Y           Z
   0 Cr   24.0000    0    52.000    9.527056    0.049394   -0.409230
   1 O     8.0000    0    15.999    8.071221   -0.397013   -3.763116
   2 O     8.0000    0    15.999   10.508690   -0.251668    3.100504
   3 O     8.0000    0    15.999   12.384286    1.981450   -1.526373
   4 O     8.0000    0    15.999    4.876911   -2.038514   -6.037921
   5 O     8.0000    0    15.999   12.608788   -2.626249    5.925612
   6 O     8.0000    0    15.999   13.776241    5.891021   -2.429364
   7 N     7.0000    0    14.007    6.172794   -1.884877    0.480652
   8 N     7.0000    0    14.007   11.653480   -3.198242   -0.625497
   9 N     7.0000    0    14.007    7.993313    3.641842   -0.009798
  10 C     6.0000    0    12.011    4.790312   -2.427034   -1.575370
  11 C     6.0000    0    12.011   12.696516   -3.819017    1.599636
  12 C     6.0000    0    12.011    9.644248    5.408695   -0.776553
  13 C     6.0000    0    12.011    5.938385   -1.576820   -4.057520
  14 C     6.0000    0    12.011   11.938558   -2.140563    3.788965
  15 C     6.0000    0    12.011   12.181774    4.428460   -1.678413
  16 C     6.0000    0    12.011    5.338308   -2.560216    2.770246
  17 C     6.0000    0    12.011   12.205335   -4.520437   -2.702242
  18 C     6.0000    0    12.011    5.718370    4.338339    0.831914
  19 C     6.0000    0    12.011    2.498469   -3.680383   -1.414097
  20 C     6.0000    0    12.011   14.333272   -5.844876    1.835640
  21 C     6.0000    0    12.011    9.057352    7.959018   -0.731783
  22 C     6.0000    0    12.011    3.060944   -3.816449    3.076115
  23 C     6.0000    0    12.011   13.838742   -6.566487   -2.610069
  24 C     6.0000    0    12.011    4.999650    6.852147    0.937068
  25 C     6.0000    0    12.011    1.618936   -4.386423    0.953320
  26 C     6.0000    0    12.011   14.914390   -7.239690   -0.309344
  27 C     6.0000    0    12.011    6.697411    8.692362    0.138360
  28 H     1.0000    0     1.008    6.538290   -2.060625    4.345597
  29 H     1.0000    0     1.008   11.323783   -3.889992   -4.433528
  30 H     1.0000    0     1.008    4.463529    2.842785    1.429204
  31 H     1.0000    0     1.008    1.479612   -4.066575   -3.139814
  32 H     1.0000    0     1.008   15.111072   -6.263728    3.675137
  33 H     1.0000    0     1.008   10.466615    9.286033   -1.377673
  34 H     1.0000    0     1.008    2.440691   -4.336610    4.950166
  35 H     1.0000    0     1.008   14.259237   -7.599396   -4.319683
  36 H     1.0000    0     1.008    3.144542    7.347680    1.629630
  37 H     1.0000    0     1.008   -0.163321   -5.368035    1.146975
  38 H     1.0000    0     1.008   16.197617   -8.826334   -0.195241
  39 H     1.0000    0     1.008    6.182124   10.669210    0.197371

--------------------------------
INTERNAL COORDINATES (ANGSTROEM)
--------------------------------
 Cr     0   0   0     0.000000000000     0.00000000     0.00000000
 O      1   0   0     1.949160630633     0.00000000     0.00000000
 O      1   2   0     1.935115875195   165.93898430     0.00000000
 O      1   2   3     1.918558502170    95.48023942   155.86199592
 O      2   1   4     2.249649260082   146.20218626   180.71975305
 O      3   1   4     2.246996533318   144.82189258   269.13991220
 O      4   1   2     2.247457324841   144.52351406    86.99701982
 N      1   2   5     2.102396872194    79.12009611   357.29925290
 N      1   2   5     2.057376065474    93.68590350    90.54023341
 N      1   2   5     2.077827768018    92.81567600   262.41000989
 C      8   1   2     1.342110375004   112.50147528     0.00000000
 C      9   1   2     1.341284778301   112.38443286   190.31121889
 C     10   1   2     1.342407434147   110.62671695   266.98819411
 C      5   2   1     1.213868003811    27.45366948     3.48556210
 C      6   3   1     1.212538802398    27.92005531     5.06144541
 C      7   4   1     1.211958998749    27.65780091     4.15050393
 C      8   1   2     1.338168812354   127.69288806   180.58145695
 C      9   1   2     1.335122582995   127.09737732    15.94815153
 C     10   1   2     1.335473090043   129.68330803    86.23169633
 C     11   8   1     1.384932442461   121.98923541   180.47845886
 C     12   9   1     1.383853529801   121.77014127   184.29517043
 C     13  10   1     1.385050003788   121.84031418   179.09731935
 C     17   8   1     1.385804241378   121.38816594   179.35067364
 C     18   9   1     1.386286355682   121.11221299   174.55786171
 C     19  10   1     1.384670479726   121.74509054   180.89570866
 C     20  11   8     1.387689195580   118.57309727     0.08639574
 C     21  12   9     1.388438753039   118.46795623     0.66510536
 C     22  13  10     1.386430609980   118.71106875     0.17816118
 H     17   8   1     1.080776116498   116.05064362   359.60089928
 H     18   9   1     1.080862341997   116.20183008   355.11908055
 H     19  10   1     1.080359139750   116.70950016     0.93247086
 H     20  11   8     1.080002935613   118.40372989   180.21099501
 H     21  12   9     1.079853466839   118.61487237   180.27265844
 H     22  13  10     1.079854074251   118.25336512   180.12937591
 H     23  17   8     1.080266734307   119.58245549   179.96636871
 H     24  18   9     1.080156642085   119.61686794   180.24816348
 H     25  19  10     1.080172666998   119.76756576   180.03332631
 H     26  20  11     1.081582693645   120.48466709   180.00801460
 H     27  21  12     1.081534366371   120.40544500   179.54509795
 H     28  22  13     1.081508161699   120.49313850   179.97907982

---------------------------
INTERNAL COORDINATES (A.U.)
---------------------------
 Cr     0   0   0     0.000000000000     0.00000000     0.00000000
 O      1   0   0     3.683379782917     0.00000000     0.00000000
 O      1   2   0     3.656839041521   165.93898430     0.00000000
 O      1   2   3     3.625550141008    95.48023942   155.86199592
 O      2   1   4     4.251220998933   146.20218626   180.71975305
 O      3   1   4     4.246208071841   144.82189258   269.13991220
 O      4   1   2     4.247078841625   144.52351406    86.99701982
 N      1   2   5     3.972954313259    79.12009611   357.29925290
 N      1   2   5     3.887877318231    93.68590350    90.54023341
 N      1   2   5     3.926525435011    92.81567600   262.41000989
 C      8   1   2     2.536221050252   112.50147528     0.00000000
 C      9   1   2     2.534660898585   112.38443286   190.31121889
 C     10   1   2     2.536782410678   110.62671695   266.98819411
 C      5   2   1     2.293878089933    27.45366948     3.48556210
 C      6   3   1     2.291366263285    27.92005531     5.06144541
 C      7   4   1     2.290270593176    27.65780091     4.15050393
 C      8   1   2     2.528772576304   127.69288806   180.58145695
 C      9   1   2     2.523016037073   127.09737732    15.94815153
 C     10   1   2     2.523678399403   129.68330803    86.23169633
 C     11   8   1     2.617143030234   121.98923541   180.47845886
 C     12   9   1     2.615104180785   121.77014127   184.29517043
 C     13  10   1     2.617365188947   121.84031418   179.09731935
 C     17   8   1     2.618790491431   121.38816594   179.35067364
 C     18   9   1     2.619701555430   121.11221299   174.55786171
 C     19  10   1     2.616647992408   121.74509054   180.89570866
 C     20  11   8     2.622352538648   118.57309727     0.08639574
 C     21  12   9     2.623768996967   118.46795623     0.66510536
 C     22  13  10     2.619974156548   118.71106875     0.17816118
 H     17   8   1     2.042370872265   116.05064362   359.60089928
 H     18   9   1     2.042533814843   116.20183008   355.11908055
 H     19  10   1     2.041582900407   116.70950016     0.93247086
 H     20  11   8     2.040909772139   118.40372989   180.21099501
 H     21  12   9     2.040627317092   118.61487237   180.27265844
 H     22  13  10     2.040628464933   118.25336512   180.12937591
 H     23  17   8     2.041408279425   119.58245549   179.96636871
 H     24  18   9     2.041200235277   119.61686794   180.24816348
 H     25  19  10     2.041230517974   119.76756576   180.03332631
 H     26  20  11     2.043895082178   120.48466709   180.00801460
 H     27  21  12     2.043803756866   120.40544500   179.54509795
 H     28  22  13     2.043754237212   120.49313850   179.97907982

---------------------
BASIS SET INFORMATION
---------------------
There are 5 groups of distinct atoms

 Group   1 Type Cr  : 17s12p7d2f1g contracted to 6s5p4d2f1g pattern {842111/63111/4111/11/1}
 Group   2 Type O   : 11s6p2d1f contracted to 5s3p2d1f pattern {62111/411/11/1}
 Group   3 Type N   : 11s6p2d1f contracted to 5s3p2d1f pattern {62111/411/11/1}
 Group   4 Type C   : 11s6p2d1f contracted to 5s3p2d1f pattern {62111/411/11/1}
 Group   5 Type H   : 5s2p1d contracted to 3s2p1d pattern {311/11/1}

Atom   0Cr   basis set group =>   1
Atom   1O    basis set group =>   2
Atom   2O    basis set group =>   2
Atom   3O    basis set group =>   2
Atom   4O    basis set group =>   2
Atom   5O    basis set group =>   2
Atom   6O    basis set group =>   2
Atom   7N    basis set group =>   3
Atom   8N    basis set group =>   3
Atom   9N    basis set group =>   3
Atom  10C    basis set group =>   4
Atom  11C    basis set group =>   4
Atom  12C    basis set group =>   4
Atom  13C    basis set group =>   4
Atom  14C    basis set group =>   4
Atom  15C    basis set group =>   4
Atom  16C    basis set group =>   4
Atom  17C    basis set group =>   4
Atom  18C    basis set group =>   4
Atom  19C    basis set group =>   4
Atom  20C    basis set group =>   4
Atom  21C    basis set group =>   4
Atom  22C    basis set group =>   4
Atom  23C    basis set group =>   4
Atom  24C    basis set group =>   4
Atom  25C    basis set group =>   4
Atom  26C    basis set group =>   4
Atom  27C    basis set group =>   4
Atom  28H    basis set group =>   5
Atom  29H    basis set group =>   5
Atom  30H    basis set group =>   5
Atom  31H    basis set group =>   5
Atom  32H    basis set group =>   5
Atom  33H    basis set group =>   5
Atom  34H    basis set group =>   5
Atom  35H    basis set group =>   5
Atom  36H    basis set group =>   5
Atom  37H    basis set group =>   5
Atom  38H    basis set group =>   5
Atom  39H    basis set group =>   5
---------------------------------
AUXILIARY/J BASIS SET INFORMATION
---------------------------------
There are 5 groups of distinct atoms

 Group   1 Type Cr  : 19s5p5d3f3g contracted to 8s5p5d2f3g pattern {121111111/11111/11111/21/111}
 Group   2 Type O   : 12s5p4d2f1g contracted to 6s4p3d1f1g pattern {711111/2111/211/2/1}
 Group   3 Type N   : 12s5p4d2f1g contracted to 6s4p3d1f1g pattern {711111/2111/211/2/1}
 Group   4 Type C   : 12s5p4d2f1g contracted to 6s4p3d1f1g pattern {711111/2111/211/2/1}
 Group   5 Type H   : 5s2p1d contracted to 3s1p1d pattern {311/2/1}

Atom   0Cr   basis set group =>   1
Atom   1O    basis set group =>   2
Atom   2O    basis set group =>   2
Atom   3O    basis set group =>   2
Atom   4O    basis set group =>   2
Atom   5O    basis set group =>   2
Atom   6O    basis set group =>   2
Atom   7N    basis set group =>   3
Atom   8N    basis set group =>   3
Atom   9N    basis set group =>   3
Atom  10C    basis set group =>   4
Atom  11C    basis set group =>   4
Atom  12C    basis set group =>   4
Atom  13C    basis set group =>   4
Atom  14C    basis set group =>   4
Atom  15C    basis set group =>   4
Atom  16C    basis set group =>   4
Atom  17C    basis set group =>   4
Atom  18C    basis set group =>   4
Atom  19C    basis set group =>   4
Atom  20C    basis set group =>   4
Atom  21C    basis set group =>   4
Atom  22C    basis set group =>   4
Atom  23C    basis set group =>   4
Atom  24C    basis set group =>   4
Atom  25C    basis set group =>   4
Atom  26C    basis set group =>   4
Atom  27C    basis set group =>   4
Atom  28H    basis set group =>   5
Atom  29H    basis set group =>   5
Atom  30H    basis set group =>   5
Atom  31H    basis set group =>   5
Atom  32H    basis set group =>   5
Atom  33H    basis set group =>   5
Atom  34H    basis set group =>   5
Atom  35H    basis set group =>   5
Atom  36H    basis set group =>   5
Atom  37H    basis set group =>   5
Atom  38H    basis set group =>   5
Atom  39H    basis set group =>   5


           ************************************************************
           *        Program running with 16 parallel MPI-processes    *
           *              working on a common directory               *
           ************************************************************
------------------------------------------------------------------------------
                           ORCA GTO INTEGRAL CALCULATION
                           -- RI-GTO INTEGRALS CHOSEN --
------------------------------------------------------------------------------
------------------------------------------------------------------------------
                   ___                                                        
                  /   \      - P O W E R E D   B Y -                         
                 /     \                                                     
                 |  |  |   _    _      __       _____    __    __             
                 |  |  |  | |  | |    /  \     |  _  \  |  |  /  |          
                  \  \/   | |  | |   /    \    | | | |  |  | /  /          
                 / \  \   | |__| |  /  /\  \   | |_| |  |  |/  /          
                |  |  |   |  __  | /  /__\  \  |    /   |      \           
                |  |  |   | |  | | |   __   |  |    \   |  |\   \          
                \     /   | |  | | |  |  |  |  | |\  \  |  | \   \       
                 \___/    |_|  |_| |__|  |__|  |_| \__\ |__|  \__/        
                                                                              
                      - O R C A' S   B I G   F R I E N D -                    
                                      &                                       
                       - I N T E G R A L  F E E D E R -                       
                                                                              
 v1 FN, 2020, v2 2021                                                         
------------------------------------------------------------------------------


Reading SHARK input file picolinate.SHARKINP.tmp ... ok
----------------------
SHARK INTEGRAL PACKAGE
----------------------

Number of atoms                             ...     40
Number of basis functions                   ...   1069
Number of shells                            ...    387
Maximum angular momentum                    ...      4
Integral batch strategy                     ... SHARK/LIBINT Hybrid
RI-J (if used) integral strategy            ... SPLIT-RIJ (Revised 2003 algorithm where possible)
Printlevel                                  ...      1
Contraction scheme used                     ... SEGMENTED contraction
Coulomb Range Separation                    ... NOT USED
Exchange Range Separation                   ... NOT USED
Finite Nucleus Model                        ... NOT USED
Auxiliary Coulomb fitting basis             ... AVAILABLE
   # of basis functions in Aux-J            ...   1544
   # of shells in Aux-J                     ...    488
   Maximum angular momentum in Aux-J        ...      4
Auxiliary J/K fitting basis                 ... NOT available
Auxiliary Correlation fitting basis         ... NOT available
Auxiliary 'external' fitting basis          ... NOT available
Integral threshold                          ...     2.500000e-11
Primitive cut-off                           ...     2.500000e-12
Primitive pair pre-selection threshold      ...     2.500000e-12

Calculating pre-screening integrals         ... done (  0.1 sec) Dimension = 387
Organizing shell pair data                  ... done (  0.6 sec)
Shell pair information
Total number of shell pairs                 ...     75078
Shell pairs after pre-screening             ...     49959
Total number of primitive shell pairs       ...    228839
Primitive shell pairs kept                  ...     99016
          la=0 lb=0:  10114 shell pairs
          la=1 lb=0:  13737 shell pairs
          la=1 lb=1:   4697 shell pairs
          la=2 lb=0:   7635 shell pairs
          la=2 lb=1:   5357 shell pairs
          la=2 lb=2:   1500 shell pairs
          la=3 lb=0:   3046 shell pairs
          la=3 lb=1:   2174 shell pairs
          la=3 lb=2:   1171 shell pairs
          la=3 lb=3:    240 shell pairs
          la=4 lb=0:    126 shell pairs
          la=4 lb=1:     89 shell pairs
          la=4 lb=2:     49 shell pairs
          la=4 lb=3:     23 shell pairs
          la=4 lb=4:      1 shell pairs

Calculating one electron integrals          ... done (  0.1 sec)
Calculating RI/J V-Matrix + Cholesky decomp.... done (  0.1 sec)
Calculating Nuclear repulsion               ... done (  0.0 sec) ENN=   3195.129058518076 Eh

SHARK setup successfully completed in   1.3 seconds

Maximum memory used throughout the entire GTOINT-calculation: 79.3 MB


           ************************************************************
           *        Program running with 16 parallel MPI-processes    *
           *              working on a common directory               *
           ************************************************************
-------------------------------------------------------------------------------
                                 ORCA SCF
-------------------------------------------------------------------------------

------------
SCF SETTINGS
------------
Hamiltonian:
 Density Functional     Method          .... DFT(GTOs)
 Exchange Functional    Exchange        .... B88
   X-Alpha parameter    XAlpha          ....  0.666667
   Becke's b parameter  XBeta           ....  0.004200
 Correlation Functional Correlation     .... LYP
 LDA part of GGA corr.  LDAOpt          .... VWN-5
 Gradients option       PostSCFGGA      .... off
 Hybrid DFT is turned on
   Fraction HF Exchange ScalHFX         ....  0.200000
   Scaling of DF-GGA-X  ScalDFX         ....  0.720000
   Scaling of DF-GGA-C  ScalDFC         ....  0.810000
   Scaling of DF-LDA-C  ScalLDAC        ....  1.000000
   Perturbative correction              ....  0.000000
   Density functional embedding theory  .... OFF
   NL short-range parameter             ....  4.800000
 RI-approximation to the Coulomb term is turned on
   Number of AuxJ basis functions       .... 1544
   RIJ-COSX (HFX calculated with COS-X)).... on


General Settings:
 Integral files         IntName         .... picolinate
 Hartree-Fock type      HFTyp           .... UHF
 Total Charge           Charge          ....    0
 Multiplicity           Mult            ....    4
 Number of Electrons    NEL             ....  213
 Basis Dimension        Dim             .... 1069
 Nuclear Repulsion      ENuc            ....   3195.1290585181 Eh

Convergence Acceleration:
 DIIS                   CNVDIIS         .... on
   Start iteration      DIISMaxIt       ....    12
   Startup error        DIISStart       ....  0.200000
   # of expansion vecs  DIISMaxEq       ....     5
   Bias factor          DIISBfac        ....   1.050
   Max. coefficient     DIISMaxC        ....  10.000
 Trust-Rad. Augm. Hess. CNVTRAH         .... auto
   Auto Start mean grad. ratio tolernc. ....  1.125000
   Auto Start start iteration           ....    20
   Auto Start num. interpolation iter.  ....    10
   Max. Number of Micro iterations      ....    16
   Max. Number of Macro iterations      .... Maxiter - #DIIS iter
   Number of Davidson start vectors     ....     2
   Converg. threshold I  (grad. norm)   ....   1.000e-05
   Converg. threshold II (energy diff.) ....   1.000e-08
   Grad. Scal. Fac. for Micro threshold ....   0.100
   Minimum threshold for Micro iter.    ....   0.010
   NR start threshold (gradient norm)   ....   0.001
   Initial trust radius                 ....   0.400
   Minimum AH scaling param. (alpha)    ....   1.000
   Maximum AH scaling param. (alpha)    .... 1000.000
   Orbital update algorithm             .... Taylor
   White noise on init. David. guess    .... on
   Maximum white noise                  ....   0.010
   Quad. conv. algorithm                .... NR
 SOSCF                  CNVSOSCF        .... off
 Level Shifting         CNVShift        .... on
   Level shift para.    LevelShift      ....    0.2500
   Turn off err/grad.   ShiftErr        ....    0.0010
 Zerner damping         CNVZerner       .... off
 Static damping         CNVDamp         .... on
   Fraction old density DampFac         ....    0.7000
   Max. Damping (<1)    DampMax         ....    0.9800
   Min. Damping (>=0)   DampMin         ....    0.0000
   Turn off err/grad.   DampErr         ....    0.1000
 Fernandez-Rico         CNVRico         .... off

SCF Procedure:
 Maximum # iterations   MaxIter         ....   125
 SCF integral mode      SCFMode         .... Direct
   Integral package                     .... SHARK and LIBINT hybrid scheme
 Reset frequency        DirectResetFreq ....    20
 Integral Threshold     Thresh          ....  2.500e-11 Eh
 Primitive CutOff       TCut            ....  2.500e-12 Eh

Convergence Tolerance:
 Convergence Check Mode ConvCheckMode   .... Total+1el-Energy
 Convergence forced     ConvForced      .... 0
 Energy Change          TolE            ....  1.000e-08 Eh
 1-El. energy change                    ....  1.000e-05 Eh
 DIIS Error             TolErr          ....  5.000e-07


Diagonalization of the overlap matrix:
Smallest eigenvalue                        ... 1.936e-05
Time for diagonalization                   ...    0.085 sec
Threshold for overlap eigenvalues          ... 1.000e-08
Number of eigenvalues below threshold      ... 0
Time for construction of square roots      ...    0.092 sec
Total time needed                          ...    0.182 sec

Time for model grid setup =    0.255 sec

------------------------------
INITIAL GUESS: MODEL POTENTIAL
------------------------------
Loading Hartree-Fock densities                     ... done
Calculating cut-offs                               ... done
Initializing the effective Hamiltonian             ... done
Setting up the integral package (SHARK)            ... done
Starting the Coulomb interaction                   ... done (   0.4 sec)
Reading the grid                                   ... done
Mapping shells                                     ... done
Starting the XC term evaluation                    ... done (   0.3 sec)
  promolecular density results
     # of electrons  =    212.991236184
     EX              =   -212.655521907
     EC              =     -7.704704752
     EX+EC           =   -220.360226658
Transforming the Hamiltonian                       ... done (   0.1 sec)
Diagonalizing the Hamiltonian                      ... done (   0.1 sec)
Back transforming the eigenvectors                 ... done (   0.0 sec)
Now organizing SCF variables                       ... done
                      ------------------
                      INITIAL GUESS DONE (   1.2 sec)
                      ------------------
-------------------
DFT GRID GENERATION
-------------------

General Integration Accuracy     IntAcc      ... 4.388
Radial Grid Type                 RadialGrid  ... OptM3 with GC (2021)
Angular Grid (max. ang.)         AngularGrid ... 4 (Lebedev-302)
Angular grid pruning method      GridPruning ... 4 (adaptive)
Weight generation scheme         WeightScheme... Becke
Basis function cutoff            BFCut       ... 1.0000e-11
Integration weight cutoff        WCut        ... 1.0000e-14
Angular grids for H and He will be reduced by one unit
Partially contracted basis set               ... off
Rotationally invariant grid construction     ... off

Total number of grid points                  ...   210361
Total number of batches                      ...     3307
Average number of points per batch           ...       63
Average number of grid points per atom       ...     5259
Time for grid setup =    0.976 sec

--------------------
COSX GRID GENERATION
--------------------

GRIDX 1
-------
General Integration Accuracy     IntAcc      ... 3.816
Radial Grid Type                 RadialGrid  ... OptM3 with GC (2021)
Angular Grid (max. ang.)         AngularGrid ... 1 (Lebedev-50)
Angular grid pruning method      GridPruning ... 4 (adaptive)
Weight generation scheme         WeightScheme... Becke
Basis function cutoff            BFCut       ... 1.0000e-11
Integration weight cutoff        WCut        ... 1.0000e-14
Angular grids for H and He will be reduced by one unit
Partially contracted basis set               ... on
Rotationally invariant grid construction     ... off

Total number of grid points                  ...    26413
Total number of batches                      ...      428
Average number of points per batch           ...       61
Average number of grid points per atom       ...      660
UseSFitting                                  ... on

GRIDX 2
-------
General Integration Accuracy     IntAcc      ... 4.020
Radial Grid Type                 RadialGrid  ... OptM3 with GC (2021)
Angular Grid (max. ang.)         AngularGrid ... 2 (Lebedev-110)
Angular grid pruning method      GridPruning ... 4 (adaptive)
Weight generation scheme         WeightScheme... Becke
Basis function cutoff            BFCut       ... 1.0000e-11
Integration weight cutoff        WCut        ... 1.0000e-14
Angular grids for H and He will be reduced by one unit
Partially contracted basis set               ... on
Rotationally invariant grid construction     ... off

Total number of grid points                  ...    58738
Total number of batches                      ...      938
Average number of points per batch           ...       62
Average number of grid points per atom       ...     1468
UseSFitting                                  ... on

GRIDX 3
-------
General Integration Accuracy     IntAcc      ... 4.338
Radial Grid Type                 RadialGrid  ... OptM3 with GC (2021)
Angular Grid (max. ang.)         AngularGrid ... 3 (Lebedev-194)
Angular grid pruning method      GridPruning ... 4 (adaptive)
Weight generation scheme         WeightScheme... Becke
Basis function cutoff            BFCut       ... 1.0000e-11
Integration weight cutoff        WCut        ... 1.0000e-14
Angular grids for H and He will be reduced by one unit
Partially contracted basis set               ... on
Rotationally invariant grid construction     ... off

Total number of grid points                  ...   128776
Total number of batches                      ...     2033
Average number of points per batch           ...       63
Average number of grid points per atom       ...     3219
UseSFitting                                  ... on

Time for X-Grid setup             =    1.876 sec

--------------
SCF ITERATIONS
--------------
ITER       Energy         Delta-E        Max-DP      RMS-DP      [F,P]     Damp
               ***  Starting incremental Fock matrix formation  ***
  0  -2352.0240455344   0.000000000000 0.34950654  0.00065070  0.1661567 0.7000
  1  -2351.9663069242   0.057738610246 0.19105131  0.00053841  0.1753631 0.7000
                               ***Turning on DIIS***
  2  -2352.3949861357  -0.428679211472 0.11715731  0.00058157  0.0351692 0.0000
  3  -2352.9726386947  -0.577652559090 0.23598131  0.00051835  0.0609042 0.0000
  4  -2352.9094481783   0.063190516483 0.06180573  0.00008857  0.1422424 0.7000
  5  -2352.9912470382  -0.081798859920 0.06214315  0.00009326  0.1101807 0.7000
  6  -2353.0643978835  -0.073150845363 0.16712338  0.00027071  0.0777498 0.0000
  7  -2353.1933104520  -0.128912568443 0.03729480  0.00009120  0.0086129 0.0000
  8  -2353.2005260867  -0.007215634667 0.00952879  0.00003732  0.0085345 0.0000
  9  -2353.2038091241  -0.003283037449 0.00997821  0.00002403  0.0039462 0.0000
 10  -2353.2048783690  -0.001069244855 0.00556558  0.00001601  0.0016025 0.0000
 11  -2353.2053093596  -0.000430990678 0.00254205  0.00000998  0.0012413 0.0000
 12  -2353.2054828869  -0.000173527245 0.00257365  0.00000703  0.0012842 0.0000
 13  -2353.2055598689  -0.000076981998 0.00155984  0.00000845  0.0004799 0.0000
               *** Restarting incremental Fock matrix formation ***
                                   *** Resetting DIIS ***
 14  -2353.2055943855  -0.000034516589 0.00150765  0.00000676  0.0003685 0.0000
 15  -2353.2055818670   0.000012518498 0.00120241  0.00000349  0.0007977 0.0000
 16  -2353.2055996984  -0.000017831389 0.00030146  0.00000100  0.0001513 0.0000
 17  -2353.2056002874  -0.000000589017 0.00027425  0.00000067  0.0001043 0.0000
 18  -2353.2056007976  -0.000000510256 0.00020709  0.00000047  0.0000669 0.0000
 19  -2353.2056009991  -0.000000201435 0.00011955  0.00000037  0.0000661 0.0000
 20  -2353.2056010943  -0.000000095215 0.00007246  0.00000027  0.0000486 0.0000
 21  -2353.2056011367  -0.000000042414 0.00003691  0.00000018  0.0000078 0.0000
 22  -2353.2056011942  -0.000000057513 0.00001795  0.00000010  0.0000091 0.0000
 23  -2353.2056012164  -0.000000022207 0.00002859  0.00000009  0.0000076 0.0000
 24  -2353.2056010885   0.000000127872 0.00001314  0.00000008  0.0000050 0.0000
 25  -2353.2056011816  -0.000000093088 0.00000953  0.00000008  0.0000047 0.0000
 26  -2353.2056011890  -0.000000007401 0.00001384  0.00000011  0.0000024 0.0000
                            ***DIIS convergence achieved***

               *****************************************************
               *                     SUCCESS                       *
               *           SCF CONVERGED AFTER  27 CYCLES          *
               *****************************************************

Old exchange energy                            =    -42.892136579 Eh
New exchange energy                            =    -42.892106960 Eh
Exchange energy change after final integration =      0.000029619 Eh
Total energy after final integration           =  -2353.205571635 Eh
Final COS-X integration done in                =    24.548 sec

----------------
TOTAL SCF ENERGY
----------------

Total Energy       :        -2353.20557164 Eh          -64033.97903 eV

Components:
Nuclear Repulsion  :         3195.12905852 Eh           86943.88182 eV
Electronic Energy  :        -5548.33463015 Eh         -150977.86085 eV
One Electron Energy:        -9582.68852086 Eh         -260758.21134 eV
Two Electron Energy:         4034.35389071 Eh          109780.35049 eV
Max COSX asymmetry :            0.00000067 Eh               0.00002 eV

Virial components:
Potential Energy   :        -4699.59499902 Eh         -127882.48134 eV
Kinetic Energy     :         2346.38942738 Eh           63848.50231 eV
Virial Ratio       :            2.00290495


DFT components:
N(Alpha)           :      107.999961872704 electrons
N(Beta)            :      104.999956400239 electrons
N(Total)           :      212.999918272943 electrons
E(X)               :     -170.795635459401 Eh       
E(C)               :       -9.031186040742 Eh       
E(XC)              :     -179.826821500142 Eh       
DFET-embed. en.    :        0.000000000000 Eh       

---------------
SCF CONVERGENCE
---------------

  Last Energy change         ...   -6.5078e-08  Tolerance :   1.0000e-08
  Last MAX-Density change    ...    0.0000e+00  Tolerance :   1.0000e-07
  Last RMS-Density change    ...    0.0000e+00  Tolerance :   5.0000e-09
  Last DIIS Error            ...    8.2055e-07  Tolerance :   5.0000e-07

             **** THE GBW FILE WAS UPDATED (picolinate.gbw) ****
             **** DENSITY picolinate.scfp WAS UPDATED ****
             **** ENERGY FILE WAS UPDATED (picolinate.en.tmp) ****
----------------------
UHF SPIN CONTAMINATION
----------------------

Warning: in a DFT calculation there is little theoretical justification to 
         calculate <S**2> as in Hartree-Fock theory. We will do it anyways
         but you should keep in mind that the values have only limited relevance

Expectation value of <S**2>     :     3.769020
Ideal value S*(S+1) for S=1.5   :     3.750000
Deviation                       :     0.019020

             **** THE GBW FILE WAS UPDATED (picolinate.gbw) ****
             **** DENSITY picolinate.scfp WAS UPDATED ****
----------------
ORBITAL ENERGIES
----------------
                 SPIN UP ORBITALS
  NO   OCC          E(Eh)            E(eV) 
   0   1.0000    -215.760206     -5871.1337 
   1   1.0000     -24.769519      -674.0129 
   2   1.0000     -21.057391      -573.0007 
   3   1.0000     -21.056536      -572.9775 
   4   1.0000     -21.055929      -572.9610 
   5   1.0000     -19.115508      -520.1594 
   6   1.0000     -19.115103      -520.1484 
   7   1.0000     -19.109304      -519.9906 
   8   1.0000     -19.094187      -519.5792 
   9   1.0000     -19.092623      -519.5367 
  10   1.0000     -19.084212      -519.3078 
  11   1.0000     -14.381683      -391.3455 
  12   1.0000     -14.377009      -391.2183 
  13   1.0000     -14.375533      -391.1781 
  14   1.0000     -10.287355      -279.9332 
  15   1.0000     -10.285728      -279.8889 
  16   1.0000     -10.278284      -279.6863 
  17   1.0000     -10.251761      -278.9646 
  18   1.0000     -10.250988      -278.9436 
  19   1.0000     -10.249660      -278.9074 
  20   1.0000     -10.244708      -278.7727 
  21   1.0000     -10.244500      -278.7670 
  22   1.0000     -10.243214      -278.7320 
  23   1.0000     -10.232848      -278.4500 
  24   1.0000     -10.224168      -278.2137 
  25   1.0000     -10.224007      -278.2094 
  26   1.0000     -10.223819      -278.2043 
  27   1.0000     -10.218595      -278.0621 
  28   1.0000     -10.217198      -278.0241 
  29   1.0000     -10.215069      -277.9662 
  30   1.0000     -10.210875      -277.8520 
  31   1.0000     -10.208981      -277.8005 
  32   1.0000      -2.971788       -80.8665 
  33   1.0000      -1.922016       -52.3007 
  34   1.0000      -1.920333       -52.2549 
  35   1.0000      -1.919161       -52.2230 
  36   1.0000      -1.067487       -29.0478 
  37   1.0000      -1.064357       -28.9626 
  38   1.0000      -1.057215       -28.7683 
  39   1.0000      -1.002421       -27.2773 
  40   1.0000      -0.995876       -27.0992 
  41   1.0000      -0.994473       -27.0610 
  42   1.0000      -0.979538       -26.6546 
  43   1.0000      -0.976593       -26.5744 
  44   1.0000      -0.970769       -26.4160 
  45   1.0000      -0.849444       -23.1145 
  46   1.0000      -0.841747       -22.9051 
  47   1.0000      -0.840898       -22.8820 
  48   1.0000      -0.812864       -22.1192 
  49   1.0000      -0.806208       -21.9380 
  50   1.0000      -0.805967       -21.9315 
  51   1.0000      -0.688303       -18.7297 
  52   1.0000      -0.682026       -18.5589 
  53   1.0000      -0.681235       -18.5373 
  54   1.0000      -0.675329       -18.3766 
  55   1.0000      -0.669402       -18.2154 
  56   1.0000      -0.667530       -18.1644 
  57   1.0000      -0.597907       -16.2699 
  58   1.0000      -0.592065       -16.1109 
  59   1.0000      -0.590326       -16.0636 
  60   1.0000      -0.548050       -14.9132 
  61   1.0000      -0.538106       -14.6426 
  62   1.0000      -0.534182       -14.5358 
  63   1.0000      -0.531800       -14.4710 
  64   1.0000      -0.526896       -14.3376 
  65   1.0000      -0.525579       -14.3017 
  66   1.0000      -0.505264       -13.7489 
  67   1.0000      -0.497228       -13.5303 
  68   1.0000      -0.492682       -13.4066 
  69   1.0000      -0.484139       -13.1741 
  70   1.0000      -0.481723       -13.1083 
  71   1.0000      -0.477209       -12.9855 
  72   1.0000      -0.472772       -12.8648 
  73   1.0000      -0.468048       -12.7362 
  74   1.0000      -0.461045       -12.5457 
  75   1.0000      -0.458873       -12.4866 
  76   1.0000      -0.454287       -12.3618 
  77   1.0000      -0.449569       -12.2334 
  78   1.0000      -0.435903       -11.8615 
  79   1.0000      -0.431921       -11.7532 
  80   1.0000      -0.426766       -11.6129 
  81   1.0000      -0.421819       -11.4783 
  82   1.0000      -0.420101       -11.4315 
  83   1.0000      -0.412352       -11.2207 
  84   1.0000      -0.409314       -11.1380 
  85   1.0000      -0.408640       -11.1197 
  86   1.0000      -0.406521       -11.0620 
  87   1.0000      -0.371534       -10.1100 
  88   1.0000      -0.365156        -9.9364 
  89   1.0000      -0.350690        -9.5428 
  90   1.0000      -0.344838        -9.3835 
  91   1.0000      -0.341977        -9.3057 
  92   1.0000      -0.340293        -9.2598 
  93   1.0000      -0.331074        -9.0090 
  94   1.0000      -0.323336        -8.7984 
  95   1.0000      -0.314707        -8.5636 
  96   1.0000      -0.310939        -8.4611 
  97   1.0000      -0.304472        -8.2851 
  98   1.0000      -0.299414        -8.1475 
  99   1.0000      -0.297835        -8.1045 
 100   1.0000      -0.294620        -8.0170 
 101   1.0000      -0.283419        -7.7122 
 102   1.0000      -0.271989        -7.4012 
 103   1.0000      -0.271306        -7.3826 
 104   1.0000      -0.265361        -7.2208 
 105   1.0000      -0.257074        -6.9953 
 106   1.0000      -0.254675        -6.9301 
 107   1.0000      -0.238899        -6.5008 
 108   0.0000      -0.088071        -2.3965 
 109   0.0000      -0.080142        -2.1808 
 110   0.0000      -0.078436        -2.1344 
 111   0.0000      -0.069552        -1.8926 
 112   0.0000      -0.058412        -1.5895 
 113   0.0000      -0.058012        -1.5786 
 114   0.0000      -0.040352        -1.0980 
 115   0.0000      -0.027086        -0.7370 
 116   0.0000       0.011730         0.3192 
 117   0.0000       0.034258         0.9322 
 118   0.0000       0.034764         0.9460 
 119   0.0000       0.037418         1.0182 
 120   0.0000       0.045634         1.2418 
 121   0.0000       0.047579         1.2947 
 122   0.0000       0.049056         1.3349 
 123   0.0000       0.058425         1.5898 
 124   0.0000       0.063017         1.7148 
 125   0.0000       0.070110         1.9078 
 126   0.0000       0.072340         1.9685 
 127   0.0000       0.081535         2.2187 
 128   0.0000       0.088504         2.4083 
 129   0.0000       0.091503         2.4899 
 130   0.0000       0.096100         2.6150 
 131   0.0000       0.101384         2.7588 
 132   0.0000       0.108081         2.9410 
 133   0.0000       0.110002         2.9933 
 134   0.0000       0.114130         3.1056 
 135   0.0000       0.117826         3.2062 
 136   0.0000       0.119666         3.2563 
 137   0.0000       0.123526         3.3613 
 138   0.0000       0.129503         3.5239 
 139   0.0000       0.132580         3.6077 
 140   0.0000       0.143811         3.9133 
 141   0.0000       0.146894         3.9972 
 142   0.0000       0.155046         4.2190 
 143   0.0000       0.163673         4.4538 
 144   0.0000       0.168731         4.5914 
 145   0.0000       0.178763         4.8644 
 146   0.0000       0.180187         4.9031 
 147   0.0000       0.182174         4.9572 
 148   0.0000       0.185186         5.0392 
 149   0.0000       0.192424         5.2361 
 150   0.0000       0.195153         5.3104 
 151   0.0000       0.200951         5.4681 
 152   0.0000       0.204130         5.5546 
 153   0.0000       0.206437         5.6174 
 154   0.0000       0.209028         5.6879 
 155   0.0000       0.218689         5.9508 
 156   0.0000       0.219125         5.9627 
 157   0.0000       0.225283         6.1303 
 158   0.0000       0.231177         6.2907 
 159   0.0000       0.236316         6.4305 
 160   0.0000       0.237854         6.4723 
 161   0.0000       0.239988         6.5304 
 162   0.0000       0.242148         6.5892 
 163   0.0000       0.243619         6.6292 
 164   0.0000       0.244322         6.6483 
 165   0.0000       0.250573         6.8184 
 166   0.0000       0.256732         6.9860 
 167   0.0000       0.262257         7.1364 
 168   0.0000       0.263881         7.1806 
 169   0.0000       0.273952         7.4546 
 170   0.0000       0.279856         7.6153 
 171   0.0000       0.280167         7.6237 
 172   0.0000       0.284130         7.7316 
 173   0.0000       0.286745         7.8027 
 174   0.0000       0.291236         7.9249 
 175   0.0000       0.293892         7.9972 
 176   0.0000       0.296050         8.0559 
 177   0.0000       0.297901         8.1063 
[...]
  6:     28.52   0.000202    1.02  0.002206  (-0.000882  0.032514 -0.033878)
  7:     30.20   0.000106    0.53  0.001092  ( 0.007396 -0.021446 -0.024023)
  8:     37.20   0.001026    5.19  0.008608  ( 0.050354  0.023905  0.074172)
  9:     41.61   0.001445    7.30  0.010836  (-0.047712 -0.086666  0.032390)
 10:     42.14   0.000305    1.54  0.002261  (-0.030059  0.035593  0.009499)
 11:     52.92   0.001067    5.39  0.006294  ( 0.068930 -0.034790  0.018241)
 12:    111.84   0.000060    0.30  0.000168  ( 0.005275 -0.002720 -0.011521)
 13:    113.86   0.000147    0.74  0.000404  (-0.015453  0.008861 -0.009306)
 14:    118.22   0.000176    0.89  0.000465  (-0.001817 -0.021159 -0.003697)
 15:    159.51   0.000051    0.26  0.000099  (-0.009165 -0.003904  0.000046)
 16:    164.16   0.000243    1.23  0.000463  (-0.013861  0.002797 -0.016215)
 17:    171.52   0.000053    0.27  0.000096  ( 0.005427  0.007959 -0.001861)
 18:    183.97   0.000352    1.78  0.000598  ( 0.022811 -0.003907  0.007874)
 19:    193.35   0.000162    0.82  0.000261  (-0.004841 -0.014675  0.004728)
 20:    203.58   0.000084    0.43  0.000129  ( 0.006403 -0.000463  0.009381)
 21:    205.05   0.000134    0.67  0.000203  ( 0.000127  0.013006  0.005836)
 22:    224.63   0.000115    0.58  0.000160  (-0.009552 -0.007364 -0.003767)
 23:    240.41   0.000075    0.38  0.000097  ( 0.008110 -0.005622 -0.000031)
 24:    269.29   0.004467   22.57  0.005176  (-0.053127  0.047012  0.011978)
 25:    293.75   0.001363    6.89  0.001448  (-0.010937 -0.036403  0.001846)
 26:    298.77   0.002077   10.49  0.002169  ( 0.007777  0.045692 -0.004561)
 27:    363.54   0.001921    9.71  0.001649  ( 0.022501 -0.028922 -0.017489)
 28:    382.68   0.008270   41.79  0.006744  ( 0.003342 -0.081321  0.010941)
 29:    388.09   0.005621   28.41  0.004520  ( 0.063167  0.002141  0.022916)
 30:    430.04   0.000018    0.09  0.000013  ( 0.002665 -0.001399  0.002038)
 31:    433.39   0.000160    0.81  0.000115  ( 0.009199 -0.002571 -0.004862)
 32:    436.27   0.000535    2.70  0.000382  (-0.009195  0.017174  0.001705)
 33:    453.98   0.002241   11.32  0.001540  (-0.016947 -0.035399  0.000146)
 34:    459.73   0.004248   21.47  0.002884  ( 0.033531 -0.009250  0.040914)
 35:    462.47   0.000557    2.81  0.000376  ( 0.006745 -0.017643  0.004347)
 36:    467.49   0.000633    3.20  0.000422  ( 0.010704  0.000765 -0.017531)
 37:    477.11   0.014540   73.48  0.009510  (-0.049592  0.042446 -0.072450)
 38:    481.72   0.017065   86.24  0.011055  ( 0.072848  0.074604  0.013500)
 39:    543.14   0.000015    0.08  0.000009  ( 0.000883 -0.002774  0.000314)
 40:    544.38   0.000227    1.15  0.000130  ( 0.002690  0.011064 -0.000596)
 41:    546.90   0.000111    0.56  0.000063  ( 0.000957  0.001422  0.007757)
 42:    671.07   0.002178   11.01  0.001013  (-0.027096 -0.015651  0.005790)
 43:    674.46   0.000587    2.97  0.000272  ( 0.001500  0.016363  0.001245)
 44:    678.16   0.004637   23.44  0.002134  ( 0.022189 -0.040517  0.000028)
 45:    701.84   0.005203   26.29  0.002314  (-0.014571 -0.001589 -0.045811)
 46:    705.98   0.005324   26.91  0.002353  ( 0.048486 -0.001594 -0.000167)
 47:    712.32   0.007214   36.46  0.003161  ( 0.004727  0.055945 -0.002908)
 48:    722.67   0.001367    6.91  0.000590  (-0.001941  0.023938 -0.003674)
 49:    729.35   0.003657   18.48  0.001565  (-0.035874 -0.008367 -0.014419)
 50:    731.40   0.005849   29.56  0.002496  ( 0.020286 -0.002863 -0.045563)
 51:    780.27   0.005687   28.74  0.002274  (-0.015634 -0.002041 -0.045008)
 52:    784.09   0.005638   28.49  0.002244  ( 0.044468  0.011993 -0.011072)
 53:    787.58   0.006260   31.63  0.002480  (-0.009312  0.048912  0.001083)
 54:    838.95   0.000305    1.54  0.000113  ( 0.004880 -0.001150  0.009388)
 55:    843.99   0.000657    3.32  0.000243  (-0.005958 -0.014306  0.001659)
 56:    847.89   0.000471    2.38  0.000173  (-0.008080  0.009294  0.004642)
 57:    860.03   0.001480    7.48  0.000537  (-0.017837  0.002940 -0.014501)
 58:    863.23   0.017297   87.41  0.006253  (-0.010632 -0.006939 -0.078051)
 59:    867.24   0.011968   60.48  0.004307  ( 0.056104  0.021101 -0.026716)
 60:    932.11   0.000281    1.42  0.000094  ( 0.003495  0.000082  0.009056)
 61:    940.56   0.000067    0.34  0.000022  ( 0.003870  0.002255 -0.001486)
 62:    945.72   0.000055    0.28  0.000018  ( 0.001962 -0.003799  0.000171)
 63:    994.87   0.000007    0.04  0.000002  (-0.000384 -0.000073 -0.001460)
 64:   1014.52   0.000089    0.45  0.000027  (-0.003876 -0.002768  0.002159)
 65:   1023.17   0.000114    0.57  0.000035  ( 0.002720 -0.004902 -0.001794)
 66:   1038.11   0.000042    0.21  0.000013  ( 0.000943  0.000576  0.003360)
 67:   1040.43   0.000026    0.13  0.000008  ( 0.002780 -0.000192 -0.000090)
 68:   1043.72   0.000011    0.05  0.000003  ( 0.000102 -0.001742  0.000425)
 69:   1050.15   0.001841    9.30  0.000547  (-0.017436 -0.015358  0.002668)
 70:   1053.05   0.001864    9.42  0.000552  ( 0.007209 -0.022365 -0.000349)
 71:   1054.32   0.000301    1.52  0.000089  (-0.006595  0.006744  0.000441)
 72:   1072.51   0.007424   37.52  0.002160  ( 0.045226  0.010349 -0.002759)
 73:   1075.47   0.005793   29.28  0.001681  ( 0.023258 -0.033673  0.002468)
 74:   1077.18   0.005969   30.16  0.001729  (-0.012017  0.039709  0.002818)
 75:   1120.20   0.001445    7.30  0.000403  (-0.010591 -0.016337  0.004853)
 76:   1122.05   0.002219   11.22  0.000617  (-0.011860  0.021702  0.002366)
 77:   1123.62   0.000691    3.49  0.000192  ( 0.003520 -0.013395 -0.000236)
 78:   1179.03   0.001122    5.67  0.000297  (-0.003112  0.013717 -0.009956)
 79:   1179.65   0.000473    2.39  0.000125  (-0.009337  0.002091  0.005795)
 80:   1179.83   0.000839    4.24  0.000222  (-0.001119 -0.006713 -0.013249)
 81:   1186.31   0.012442   62.88  0.003273  (-0.035566  0.039600 -0.020972)
 82:   1188.02   0.014537   73.46  0.003818  ( 0.035025  0.050275  0.008003)
 83:   1190.08   0.005717   28.89  0.001499  ( 0.018944 -0.031486  0.012205)
 84:   1288.83   0.017167   86.75  0.004157  ( 0.052049  0.034333 -0.016390)
 85:   1289.69   0.031383  158.60  0.007594  ( 0.055647 -0.066342 -0.009791)
 86:   1291.52   0.013730   69.39  0.003318  (-0.030290  0.048203  0.008749)
 87:   1310.98   0.032523  164.36  0.007742  (-0.087490 -0.003728  0.008563)
 88:   1317.49   0.057333  289.74  0.013580  ( 0.029171 -0.112818 -0.001059)
 89:   1325.50   0.002326   11.75  0.000548  (-0.012343 -0.018587  0.007051)
 90:   1337.88   0.032742  165.46  0.007637  (-0.020873 -0.084826  0.002450)
 91:   1340.59   0.032553  164.51  0.007578  (-0.060851  0.062107 -0.004203)
 92:   1344.00   0.004254   21.50  0.000988  ( 0.026071  0.013417 -0.011317)
 93:   1479.23   0.001606    8.11  0.000339  (-0.008419 -0.001403 -0.016307)
 94:   1481.95   0.001076    5.44  0.000227  (-0.001036 -0.009574  0.011571)
 95:   1482.40   0.001742    8.80  0.000367  ( 0.016245  0.009764  0.002726)
 96:   1507.07   0.001966    9.94  0.000407  (-0.001442 -0.001087  0.020097)
 97:   1509.97   0.001598    8.08  0.000330  ( 0.000281  0.000336 -0.018170)
 98:   1511.31   0.000993    5.02  0.000205  (-0.013320 -0.005195  0.000803)
 99:   1609.44   0.000927    4.68  0.000180  (-0.008844 -0.004114 -0.009194)
100:   1610.87   0.001350    6.82  0.000262  ( 0.010517  0.011645 -0.003914)
101:   1612.16   0.001126    5.69  0.000218  ( 0.006950 -0.002541  0.012771)
102:   1645.67   0.009171   46.35  0.001739  ( 0.036735  0.015834  0.011785)
103:   1648.58   0.009407   47.54  0.001781  (-0.020551  0.032987 -0.016439)
104:   1651.23   0.008768   44.31  0.001657  (-0.003180 -0.040568  0.001063)
105:   1742.21   0.184065  930.19  0.032970  (-0.106439 -0.015548 -0.146283)
106:   1744.80   0.105554  533.43  0.018879  (-0.042206 -0.116311  0.059742)
107:   1760.43   0.036981  186.89  0.006555  ( 0.059170  0.051400 -0.020307)
108:   3185.57   0.001182    5.97  0.000116  ( 0.009587  0.004736  0.001189)
109:   3186.22   0.001230    6.22  0.000120  ( 0.007051 -0.008069  0.002373)
110:   3186.78   0.000863    4.36  0.000084  (-0.001246  0.009106  0.000081)
111:   3198.19   0.000210    1.06  0.000021  (-0.003864 -0.000171 -0.002361)
112:   3198.86   0.000413    2.09  0.000040  (-0.003911 -0.004868  0.001130)
113:   3200.21   0.000125    0.63  0.000012  (-0.001917  0.001777 -0.002304)
114:   3211.45   0.000870    4.40  0.000085  (-0.007735 -0.003866  0.003123)
115:   3212.90   0.001375    6.95  0.000134  ( 0.009895 -0.004564 -0.003849)
116:   3213.25   0.000710    3.59  0.000069  ( 0.004388 -0.006751 -0.002018)
117:   3218.19   0.000502    2.54  0.000049  (-0.002459 -0.001594  0.006330)
118:   3218.86   0.000496    2.50  0.000048  ( 0.002115 -0.004309 -0.005001)
119:   3219.32   0.000726    3.67  0.000070  (-0.007737  0.001215  0.003008)

* The epsilon (eps) is given for a Dirac delta lineshape.
** The dipole moment derivative (T) already includes vibrational overlap.

The first frequency considered to be a vibration is 6
The total number of vibrations considered is 114


--------------------------
THERMOCHEMISTRY AT 298.15K
--------------------------

Temperature         ... 298.15 K
Pressure            ... 1.00 atm
Total Mass          ... 418.31 AMU

Throughout the following assumptions are being made:
  (1) The electronic state is orbitally nondegenerate
      but the spin degeneracy is treated
  (2) There are no thermally accessible electronically excited states
  (3) Hindered rotations indicated by low frequency modes are not
      treated as such but are treated as vibrations and this may
      cause some error
  (4) All equations used are the standard statistical mechanics
      equations for an ideal gas
  (5) All vibrations are strictly harmonic

freq.      28.52  E(vib)   ...       0.55 
freq.      30.20  E(vib)   ...       0.55 
freq.      37.20  E(vib)   ...       0.54 
freq.      41.61  E(vib)   ...       0.54 
freq.      42.14  E(vib)   ...       0.53 
freq.      52.92  E(vib)   ...       0.52 
freq.     111.84  E(vib)   ...       0.45 
freq.     113.86  E(vib)   ...       0.44 
freq.     118.22  E(vib)   ...       0.44 
freq.     159.51  E(vib)   ...       0.39 
freq.     164.16  E(vib)   ...       0.39 
freq.     171.52  E(vib)   ...       0.38 
freq.     183.97  E(vib)   ...       0.37 
freq.     193.35  E(vib)   ...       0.36 
freq.     203.58  E(vib)   ...       0.35 
freq.     205.05  E(vib)   ...       0.35 
freq.     224.63  E(vib)   ...       0.33 
freq.     240.41  E(vib)   ...       0.31 
freq.     269.29  E(vib)   ...       0.29 
freq.     293.75  E(vib)   ...       0.27 
freq.     298.77  E(vib)   ...       0.26 
freq.     363.54  E(vib)   ...       0.22 
freq.     382.68  E(vib)   ...       0.20 
freq.     388.09  E(vib)   ...       0.20 
freq.     430.04  E(vib)   ...       0.18 
freq.     433.39  E(vib)   ...       0.17 
freq.     436.27  E(vib)   ...       0.17 
freq.     453.98  E(vib)   ...       0.16 
freq.     459.73  E(vib)   ...       0.16 
freq.     462.47  E(vib)   ...       0.16 
freq.     467.49  E(vib)   ...       0.16 
freq.     477.11  E(vib)   ...       0.15 
freq.     481.72  E(vib)   ...       0.15 
freq.     543.14  E(vib)   ...       0.12 
freq.     544.38  E(vib)   ...       0.12 
freq.     546.90  E(vib)   ...       0.12 
freq.     671.07  E(vib)   ...       0.08 
freq.     674.46  E(vib)   ...       0.08 
freq.     678.16  E(vib)   ...       0.08 
freq.     701.84  E(vib)   ...       0.07 
freq.     705.98  E(vib)   ...       0.07 
freq.     712.32  E(vib)   ...       0.07 
freq.     722.67  E(vib)   ...       0.07 
freq.     729.35  E(vib)   ...       0.06 
freq.     731.40  E(vib)   ...       0.06 
freq.     780.27  E(vib)   ...       0.05 
freq.     784.09  E(vib)   ...       0.05 
freq.     787.58  E(vib)   ...       0.05 
freq.     838.95  E(vib)   ...       0.04 
freq.     843.99  E(vib)   ...       0.04 
freq.     847.89  E(vib)   ...       0.04 
freq.     860.03  E(vib)   ...       0.04 
freq.     863.23  E(vib)   ...       0.04 
freq.     867.24  E(vib)   ...       0.04 
freq.     932.11  E(vib)   ...       0.03 
freq.     940.56  E(vib)   ...       0.03 
freq.     945.72  E(vib)   ...       0.03 
freq.     994.87  E(vib)   ...       0.02 
freq.    1014.52  E(vib)   ...       0.02 
freq.    1023.17  E(vib)   ...       0.02 
freq.    1038.11  E(vib)   ...       0.02 
freq.    1040.43  E(vib)   ...       0.02 
freq.    1043.72  E(vib)   ...       0.02 
freq.    1050.15  E(vib)   ...       0.02 
freq.    1053.05  E(vib)   ...       0.02 
freq.    1054.32  E(vib)   ...       0.02 
freq.    1072.51  E(vib)   ...       0.02 
freq.    1075.47  E(vib)   ...       0.02 
freq.    1077.18  E(vib)   ...       0.02 
freq.    1120.20  E(vib)   ...       0.01 
freq.    1122.05  E(vib)   ...       0.01 
freq.    1123.62  E(vib)   ...       0.01 
freq.    1179.03  E(vib)   ...       0.01 
freq.    1179.65  E(vib)   ...       0.01 
freq.    1179.83  E(vib)   ...       0.01 
freq.    1186.31  E(vib)   ...       0.01 
freq.    1188.02  E(vib)   ...       0.01 
freq.    1190.08  E(vib)   ...       0.01 
freq.    1288.83  E(vib)   ...       0.01 
freq.    1289.69  E(vib)   ...       0.01 
freq.    1291.52  E(vib)   ...       0.01 
freq.    1310.98  E(vib)   ...       0.01 
freq.    1317.49  E(vib)   ...       0.01 
freq.    1325.50  E(vib)   ...       0.01 
freq.    1337.88  E(vib)   ...       0.01 
freq.    1340.59  E(vib)   ...       0.01 
freq.    1344.00  E(vib)   ...       0.01 
freq.    1479.23  E(vib)   ...       0.00 
freq.    1481.95  E(vib)   ...       0.00 
freq.    1482.40  E(vib)   ...       0.00 
freq.    1507.07  E(vib)   ...       0.00 
freq.    1509.97  E(vib)   ...       0.00 
freq.    1511.31  E(vib)   ...       0.00 
freq.    1609.44  E(vib)   ...       0.00 
freq.    1610.87  E(vib)   ...       0.00 
freq.    1612.16  E(vib)   ...       0.00 
freq.    1645.67  E(vib)   ...       0.00 
freq.    1648.58  E(vib)   ...       0.00 
freq.    1651.23  E(vib)   ...       0.00 
freq.    1742.21  E(vib)   ...       0.00 
freq.    1744.80  E(vib)   ...       0.00 
freq.    1760.43  E(vib)   ...       0.00 
freq.    3185.57  E(vib)   ...       0.00 
freq.    3186.22  E(vib)   ...       0.00 
freq.    3186.78  E(vib)   ...       0.00 
freq.    3198.19  E(vib)   ...       0.00 
freq.    3198.86  E(vib)   ...       0.00 
freq.    3200.21  E(vib)   ...       0.00 
freq.    3211.45  E(vib)   ...       0.00 
freq.    3212.90  E(vib)   ...       0.00 
freq.    3213.25  E(vib)   ...       0.00 
freq.    3218.19  E(vib)   ...       0.00 
freq.    3218.86  E(vib)   ...       0.00 
freq.    3219.32  E(vib)   ...       0.00 

------------
INNER ENERGY
------------

The inner energy is: U= E(el) + E(ZPE) + E(vib) + E(rot) + E(trans)
    E(el)   - is the total energy from the electronic structure calculation
              = E(kin-el) + E(nuc-el) + E(el-el) + E(nuc-nuc)
    E(ZPE)  - the the zero temperature vibrational energy from the frequency calculation
    E(vib)  - the the finite temperature correction to E(ZPE) due to population
              of excited vibrational states
    E(rot)  - is the rotational thermal energy
    E(trans)- is the translational thermal energy

Summary of contributions to the inner energy U:
Electronic energy                ...  -2353.31190254 Eh
Zero point energy                ...      0.28243403 Eh     177.23 kcal/mol
Thermal vibrational correction   ...      0.02010945 Eh      12.62 kcal/mol
Thermal rotational correction    ...      0.00141627 Eh       0.89 kcal/mol
Thermal translational correction ...      0.00141627 Eh       0.89 kcal/mol
-----------------------------------------------------------------------
Total thermal energy                  -2353.00652651 Eh


Summary of corrections to the electronic energy:
(perhaps to be used in another calculation)
Total thermal correction                  0.02294199 Eh      14.40 kcal/mol
Non-thermal (ZPE) correction              0.28243403 Eh     177.23 kcal/mol
-----------------------------------------------------------------------
Total correction                          0.30537602 Eh     191.63 kcal/mol


--------
ENTHALPY
--------

The enthalpy is H = U + kB*T
                kB is Boltzmann's constant
Total free energy                 ...  -2353.00652651 Eh 
Thermal Enthalpy correction       ...      0.00094421 Eh       0.59 kcal/mol
-----------------------------------------------------------------------
Total Enthalpy                    ...  -2353.00558231 Eh


Note: Only C1 symmetry has been detected, increase convergence thresholds 
      if your molecule has a higher symmetry. Symmetry factor of 1.0 is   
      used for the rotational entropy correction. 
 

Note: Rotational entropy computed according to Herzberg 
Infrared and Raman Spectra, Chapter V,1, Van Nostrand Reinhold, 1945 
Point Group:  C1, Symmetry Number:   1  
Rotational constants in cm-1:     0.007312     0.005782     0.004533 

Vibrational entropy computed according to the QRRHO of S. Grimme
Chem.Eur.J. 2012 18 9955


-------
ENTROPY
-------

The entropy contributions are T*S = T*(S(el)+S(vib)+S(rot)+S(trans))
     S(el)   - electronic entropy
     S(vib)  - vibrational entropy
     S(rot)  - rotational entropy
     S(trans)- translational entropy
The entropies will be listed as multiplied by the temperature to get
units of energy

Electronic entropy                ...      0.00130891 Eh      0.82 kcal/mol
Vibrational entropy               ...      0.03557115 Eh     22.32 kcal/mol
Rotational entropy                ...      0.01681298 Eh     10.55 kcal/mol
Translational entropy             ...      0.02089800 Eh     13.11 kcal/mol
-----------------------------------------------------------------------
Final entropy term                ...      0.07459104 Eh     46.81 kcal/mol

In case the symmetry of your molecule has not been determined correctly
or in case you have a reason to use a different symmetry number we print 
out the resulting rotational entropy values for sn=1,12 :
 --------------------------------------------------------
|  sn= 1 | S(rot)=       0.01681298 Eh     10.55 kcal/mol|
|  sn= 2 | S(rot)=       0.01615853 Eh     10.14 kcal/mol|
|  sn= 3 | S(rot)=       0.01577569 Eh      9.90 kcal/mol|
|  sn= 4 | S(rot)=       0.01550407 Eh      9.73 kcal/mol|
|  sn= 5 | S(rot)=       0.01529338 Eh      9.60 kcal/mol|
|  sn= 6 | S(rot)=       0.01512124 Eh      9.49 kcal/mol|
|  sn= 7 | S(rot)=       0.01497569 Eh      9.40 kcal/mol|
|  sn= 8 | S(rot)=       0.01484961 Eh      9.32 kcal/mol|
|  sn= 9 | S(rot)=       0.01473840 Eh      9.25 kcal/mol|
|  sn=10 | S(rot)=       0.01463893 Eh      9.19 kcal/mol|
|  sn=11 | S(rot)=       0.01454894 Eh      9.13 kcal/mol|
|  sn=12 | S(rot)=       0.01446678 Eh      9.08 kcal/mol|
 --------------------------------------------------------


-------------------
GIBBS FREE ENERGY
-------------------

The Gibbs free energy is G = H - T*S

Total enthalpy                    ...  -2353.00558231 Eh 
Total entropy correction          ...     -0.07459104 Eh    -46.81 kcal/mol
-----------------------------------------------------------------------
Final Gibbs free energy         ...  -2353.08017335 Eh

For completeness - the Gibbs free energy minus the electronic energy
G-E(el)                           ...      0.23172919 Eh    145.41 kcal/mol


Timings for individual modules:

Sum of individual times         ...     9662.787 sec (= 161.046 min)
GTO integral calculation        ...       23.274 sec (=   0.388 min)   0.2 %
SCF iterations                  ...     2615.476 sec (=  43.591 min)  27.1 %
SCF Gradient evaluation         ...      605.915 sec (=  10.099 min)   6.3 %
Geometry relaxation             ...        0.929 sec (=   0.015 min)   0.0 %
Analytical frequency calculation...     6417.192 sec (= 106.953 min)  66.4 %
                             ****ORCA TERMINATED NORMALLY****
TOTAL RUN TIME: 0 days 2 hours 41 minutes 7 seconds 404 msec
