
                                 *****************
                                 * O   R   C   A *
                                 *****************

                                            #,                                       
                                            ###                                      
                                            ####                                     
                                            #####                                    
                                            ######                                   
                                           ########,                                 
                                     ,,################,,,,,                         
                               ,,#################################,,                 
                          ,,##########################################,,             
                       ,#########################################, ''#####,          
                    ,#############################################,,   '####,        
                  ,##################################################,,,,####,       
                ,###########''''           ''''###############################       
              ,#####''   ,,,,##########,,,,          '''####'''          '####       
            ,##' ,,,,###########################,,,                        '##       
           ' ,,###''''                  '''############,,,                           
         ,,##''                                '''############,,,,        ,,,,,,###''
      ,#''                                            '''#######################'''  
     '                                                          ''''####''''         
             ,#######,   #######,   ,#######,      ##                                
            ,#'     '#,  ##    ##  ,#'     '#,    #''#        ######   ,####,        
            ##       ##  ##   ,#'  ##            #'  '#       #        #'  '#        
            ##       ##  #######   ##           ,######,      #####,   #    #        
            '#,     ,#'  ##    ##  '#,     ,#' ,#      #,         ##   #,  ,#        
             '#######'   ##     ##  '#######'  #'      '#     #####' # '####'        



                  #######################################################
                  #                        -***-                        #
                  #          Department of theory and spectroscopy      #
                  #    Directorship and core code : Frank Neese         #
                  #        Max Planck Institute fuer Kohlenforschung    #
                  #                Kaiser Wilhelm Platz 1               #
                  #                 D-45470 Muelheim/Ruhr               #
                  #                      Germany                        #
                  #                                                     #
                  #                  All rights reserved                #
                  #                        -***-                        #
                  #######################################################


                         Program Version 5.0.4 -  RELEASE  -


 With contributions from (in alphabetic order):
   Daniel Aravena         : Magnetic Suceptibility
   Michael Atanasov       : Ab Initio Ligand Field Theory (pilot matlab implementation)
   Alexander A. Auer      : GIAO ZORA, VPT2 properties, NMR spectrum
   Ute Becker             : Parallelization
   Giovanni Bistoni       : ED, misc. LED, open-shell LED, HFLD
   Martin Brehm           : Molecular dynamics
   Dmytro Bykov           : SCF Hessian
   Vijay G. Chilkuri      : MRCI spin determinant printing, contributions to CSF-ICE
   Dipayan Datta          : RHF DLPNO-CCSD density
   Achintya Kumar Dutta   : EOM-CC, STEOM-CC
   Dmitry Ganyushin       : Spin-Orbit,Spin-Spin,Magnetic field MRCI
   Miquel Garcia          : C-PCM and meta-GGA Hessian, CC/C-PCM, Gaussian charge scheme
   Yang Guo               : DLPNO-NEVPT2, F12-NEVPT2, CIM, IAO-localization
   Andreas Hansen         : Spin unrestricted coupled pair/coupled cluster methods
   Benjamin Helmich-Paris : MC-RPA, TRAH-SCF, COSX integrals
   Lee Huntington         : MR-EOM, pCC
   Robert Izsak           : Overlap fitted RIJCOSX, COSX-SCS-MP3, EOM
   Marcus Kettner         : VPT2
   Christian Kollmar      : KDIIS, OOCD, Brueckner-CCSD(T), CCSD density, CASPT2, CASPT2-K
   Simone Kossmann        : Meta GGA functionals, TD-DFT gradient, OOMP2, MP2 Hessian
   Martin Krupicka        : Initial AUTO-CI
   Lucas Lang             : DCDCAS
   Marvin Lechner         : AUTO-CI (C++ implementation), FIC-MRCC
   Dagmar Lenk            : GEPOL surface, SMD
   Dimitrios Liakos       : Extrapolation schemes; Compound Job, initial MDCI parallelization
   Dimitrios Manganas     : Further ROCIS development; embedding schemes
   Dimitrios Pantazis     : SARC Basis sets
   Anastasios Papadopoulos: AUTO-CI, single reference methods and gradients
   Taras Petrenko         : DFT Hessian,TD-DFT gradient, ASA, ECA, R-Raman, ABS, FL, XAS/XES, NRVS
   Peter Pinski           : DLPNO-MP2, DLPNO-MP2 Gradient
   Christoph Reimann      : Effective Core Potentials
   Marius Retegan         : Local ZFS, SOC
   Christoph Riplinger    : Optimizer, TS searches, QM/MM, DLPNO-CCSD(T), (RO)-DLPNO pert. Triples
   Tobias Risthaus        : Range-separated hybrids, TD-DFT gradient, RPA, STAB
   Michael Roemelt        : Original ROCIS implementation
   Masaaki Saitow         : Open-shell DLPNO-CCSD energy and density
   Barbara Sandhoefer     : DKH picture change effects
   Avijit Sen             : IP-ROCIS
   Kantharuban Sivalingam : CASSCF convergence, NEVPT2, FIC-MRCI
   Bernardo de Souza      : ESD, SOC TD-DFT
   Georgi Stoychev        : AutoAux, RI-MP2 NMR, DLPNO-MP2 response
   Willem Van den Heuvel  : Paramagnetic NMR
   Boris Wezisla          : Elementary symmetry handling
   Frank Wennmohs         : Technical directorship


 We gratefully acknowledge several colleagues who have allowed us to
 interface, adapt or use parts of their codes:
   Stefan Grimme, W. Hujo, H. Kruse, P. Pracht,  : VdW corrections, initial TS optimization,
                  C. Bannwarth, S. Ehlert          DFT functionals, gCP, sTDA/sTD-DF
   Ed Valeev, F. Pavosevic, A. Kumar             : LibInt (2-el integral package), F12 methods
   Garnet Chan, S. Sharma, J. Yang, R. Olivares  : DMRG
   Ulf Ekstrom                                   : XCFun DFT Library
   Mihaly Kallay                                 : mrcc  (arbitrary order and MRCC methods)
   Jiri Pittner, Ondrej Demel                    : Mk-CCSD
   Frank Weinhold                                : gennbo (NPA and NBO analysis)
   Christopher J. Cramer and Donald G. Truhlar   : smd solvation model
   Lars Goerigk                                  : TD-DFT with DH, B97 family of functionals
   V. Asgeirsson, H. Jonsson                     : NEB implementation
   FAccTs GmbH                                   : IRC, NEB, NEB-TS, DLPNO-Multilevel, CI-OPT
                                                   MM, QMMM, 2- and 3-layer-ONIOM, Crystal-QMMM,
                                                   LR-CPCM, SF, NACMEs, symmetry and pop. for TD-DFT,
                                                   nearIR, NL-DFT gradient (VV10), updates on ESD,
                                                   ML-optimized integration grids
   S Lehtola, MJT Oliveira, MAL Marques          : LibXC Library
   Liviu Ungur et al                             : ANISO software


 Your calculation uses the libint2 library for the computation of 2-el integrals
 For citations please refer to: http://libint.valeyev.net

 Your ORCA version has been built with support for libXC version: 5.1.0
 For citations please refer to: https://tddft.org/programs/libxc/

 This ORCA versions uses:
   CBLAS   interface :  Fast vector & matrix operations
   LAPACKE interface :  Fast linear algebra routines
   SCALAPACK package :  Parallel linear algebra routines
   Shared memory     :  Shared parallel matrices
   BLAS/LAPACK       :  OpenBLAS 0.3.15  USE64BITINT DYNAMIC_ARCH NO_AFFINITY Zen SINGLE_THREADED
        Core in use  :  Zen
   Copyright (c) 2011-2014, The OpenBLAS Project


================================================================================

----- Orbital basis set information -----
Your calculation utilizes the basis: 6-31++G(d,p)
   H-He, Li-Ne : W. J. Hehre, R. Ditchfield and J.A. Pople, J. Chem. Phys. 56, 2257 (1972).
                 Note: He and Ne are unpublished basis sets taken from the Gaussian program.
                 Note: Li and B from J. D. Dill and J. A. Pople, J. Chem. Phys. 62, 2921 (1975).
   Na - Ar     : M. M. Francl, W. J. Pietro, W. J. Hehre, J. S. Binkley, M. S. Gordon, 
                 D. J. DeFrees and J. A. Pople, J. Chem. Phys. 77, 3654 (1982).
   K - Zn      : V. A. Rassolov, J. A. Pople, M. A. Ratner, and T. L. Windus, J. Chem. Phys. 109, 1223 (1998).
   Additional Pol./Diff. from the 6-311G equivalent.

----- AuxJ basis set information -----
Your calculation utilizes the auxiliary basis: def2/J
   F. Weigend, Phys. Chem. Chem. Phys. 8, 1057 (2006).

================================================================================
                                        WARNINGS
                       Please study these warnings very carefully!
================================================================================


WARNING: your system is open-shell and RHF/RKS was chosen
  ===> : WILL SWITCH to UHF/UKS


WARNING: Geometry Optimization
  ===> : Switching off AutoStart
         For restart on a previous wavefunction, please use MOREAD

INFO   : the flag for use of the SHARK integral package has been found!

================================================================================
                                       INPUT FILE
================================================================================
NAME = picolinate_pople.inp
|  1> # avogadro generated ORCA file
|  2> # C18H12N3O6Cr | Geometry Optimization | revPBE/6-31G(d)
|  3> # 
|  4> ! B3LYP 6-31++G(d,p) TightSCF TightOpt Opt CPCM(Water) FREQ
|  5> 
|  6> %maxcore 1024
|  7> 
|  8> %pal
|  9>    nprocs 16
| 10> end
| 11> 
| 12> * xyz 0 4
| 13>    Cr     5.026174    0.021018   -0.242431
| 14>    O      4.263824   -0.228517   -2.037036
| 15>    O      5.577664   -0.100795    1.631225
| 16>    O      6.540151    1.052333   -0.849407
| 17>    O      2.575588   -1.136319   -3.214014
| 18>    O      6.700255   -1.351487    3.123247
| 19>    O      7.288724    3.126149   -1.286342
| 20>    N      3.252232   -0.993456    0.238193
| 21>    N      6.156568   -1.701512   -0.336804
| 22>    N      4.225521    1.928745   -0.016980
| 23>    C      2.531814   -1.298009   -0.851893
| 24>    C      6.721658   -2.002294    0.842067
| 25>    C      5.106109    2.864373   -0.406085
| 26>    C      3.141580   -0.863891   -2.174232
| 27>    C      6.331594   -1.096455    1.995116
| 28>    C      6.443927    2.346152   -0.901019
| 29>    C      2.810705   -1.337685    1.453241
| 30>    C      6.440260   -2.418826   -1.426706
| 31>    C      3.025756    2.297296    0.440071
| 32>    C      1.323344   -1.969508   -0.761999
| 33>    C      7.594939   -3.067896    0.975653
| 34>    C      4.805961    4.215499   -0.351302
| 35>    C      1.609916   -2.008493    1.618413
| 36>    C      7.311115   -3.495091   -1.367592
| 37>    C      2.656581    3.628666    0.525395
| 38>    C      0.855626   -2.329170    0.493967
| 39>    C      7.894501   -3.824512   -0.148966
| 40>    C      3.562211    4.603958    0.121575
| 41>    H      3.443578   -1.058974    2.284255
| 42>    H      5.961987   -2.103010   -2.343219
| 43>    H      2.355953    1.505295    0.742068
| 44>    H      0.789775   -2.190560   -1.674502
| 45>    H      8.017556   -3.269314    1.948711
| 46>    H      5.557332    4.917880   -0.680222
| 47>    H      1.278166   -2.274065    2.611524
| 48>    H      7.527910   -4.057159   -2.264054
| 49>    H      1.678236    3.890653    0.900759
| 50>    H     -0.084306   -2.854106    0.598684
| 51>    H      8.579091   -4.659051   -0.080000
| 52>    H      3.298672    5.651391    0.177146
| 53> *
| 54> 
| 55> 
| 56> 
| 57>                          ****END OF INPUT****
================================================================================

                       *****************************
                       * Geometry Optimization Run *
                       *****************************

Geometry optimization settings:
Update method            Update   .... BFGS
Choice of coordinates    CoordSys .... Z-matrix Internals
Initial Hessian          InHess   .... Almoef's Model

Convergence Tolerances:
Energy Change            TolE     ....  1.0000e-06 Eh
Max. Gradient            TolMAXG  ....  1.0000e-04 Eh/bohr
RMS Gradient             TolRMSG  ....  3.0000e-05 Eh/bohr
Max. Displacement        TolMAXD  ....  1.0000e-03 bohr
RMS Displacement         TolRMSD  ....  6.0000e-04 bohr
Strict Convergence                ....  False
------------------------------------------------------------------------------
                        ORCA OPTIMIZATION COORDINATE SETUP
------------------------------------------------------------------------------

The optimization will be done in new redundant internal coordinates
Making redundant internal coordinates   ...  (new redundants) done
Evaluating the initial hessian          ...  (Almloef) done
Evaluating the coordinates              ...  done
Calculating the B-matrix                .... done
Calculating the G-matrix                .... done
Diagonalizing the G-matrix              .... done
Small eigenvalue found = 2.050e-02
Small eigenvalue found = 2.142e-02
The first mode is                       ....  184
The number of degrees of freedom        ....  114

    -----------------------------------------------------------------
                    Redundant Internal Coordinates


    -----------------------------------------------------------------
         Definition                    Initial Value    Approx d2E/dq
    -----------------------------------------------------------------
      1. B(O   1,Cr  0)                  1.9657         0.683088   
      2. B(O   2,Cr  0)                  1.9569         0.705510   
      3. B(O   3,Cr  0)                  1.9298         0.779421   
      4. B(N   7,Cr  0)                  2.0993         0.418187   
      5. B(N   8,Cr  0)                  2.0625         0.478749   
      6. B(N   9,Cr  0)                  2.0812         0.446964   
      7. B(C  10,N   7)                  1.3417         0.668351   
      8. B(C  11,N   8)                  1.3415         0.668817   
      9. B(C  12,N   9)                  1.3425         0.666345   
     10. B(C  13,C  10)                  1.5195         0.388279   
     11. B(C  13,O   4)                  1.2148         1.065159   
     12. B(C  13,O   1)                  1.2969         0.787785   
     13. B(C  14,C  11)                  1.5173         0.391409   
     14. B(C  14,O   5)                  1.2139         1.068514   
     15. B(C  14,O   2)                  1.3008         0.776490   
     16. B(C  15,C  12)                  1.5177         0.390910   
     17. B(C  15,O   6)                  1.2127         1.073509   
     18. B(C  15,O   3)                  1.2984         0.783408   
     19. B(C  15,Cr  0)                  2.8018         0.035355   
     20. B(C  16,N   7)                  1.3378         0.677819   
     21. B(C  17,N   8)                  1.3353         0.684254   
     22. B(C  18,N   9)                  1.3357         0.683074   
     23. B(C  19,C  10)                  1.3854         0.635395   
     24. B(C  20,C  11)                  1.3842         0.638283   
     25. B(C  21,C  12)                  1.3851         0.636036   
     26. B(C  22,C  16)                  1.3853         0.635591   
     27. B(C  23,C  17)                  1.3857         0.634690   
     28. B(C  24,C  18)                  1.3842         0.638161   
     29. B(C  25,C  22)                  1.3915         0.621450   
     30. B(C  25,C  19)                  1.3876         0.630218   
     31. B(C  26,C  20)                  1.3882         0.629047   
     32. B(C  26,C  23)                  1.3906         0.623307   
     33. B(C  27,C  24)                  1.3908         0.622876   
     34. B(C  27,C  21)                  1.3862         0.633683   
     35. B(H  28,C  16)                  1.0811         0.372059   
     36. B(H  29,C  17)                  1.0810         0.372256   
     37. B(H  30,C  18)                  1.0803         0.373128   
     38. B(H  31,C  19)                  1.0799         0.373688   
     39. B(H  32,C  20)                  1.0798         0.373819   
     40. B(H  33,C  21)                  1.0799         0.373774   
     41. B(H  34,C  22)                  1.0802         0.373285   
     42. B(H  35,C  23)                  1.0801         0.373470   
     43. B(H  36,C  24)                  1.0801         0.373388   
     44. B(H  37,C  25)                  1.0817         0.371299   
     45. B(H  38,C  26)                  1.0816         0.371375   
     46. B(H  39,C  27)                  1.0815         0.371513   
     47. A(N   7,Cr  0,N   9)           95.3409         0.475418   
     48. A(O   2,Cr  0,N   7)           89.3614         0.517473   
     49. A(N   7,Cr  0,N   8)           94.0149         0.481473   
     50. A(N   9,Cr  0,C  15)           57.2771         0.311205   
     51. A(O   1,Cr  0,N   7)           79.6276         0.514353   
     52. A(O   3,Cr  0,C  15)           23.8778         0.341008   
     53. A(O   3,Cr  0,N   9)           81.1419         0.533896   
     54. A(O   1,Cr  0,C  15)           94.9907         0.333594   
     55. A(O   1,Cr  0,N   9)           93.7879         0.520808   
     56. A(O   2,Cr  0,O   3)           96.5067         0.582317   
     57. A(N   8,Cr  0,C  15)          113.8911         0.314687   
     58. A(O   1,Cr  0,O   3)           94.8730         0.578724   
     59. A(O   2,Cr  0,N   8)           80.6403         0.530793   
     60. A(N   8,Cr  0,N   9)          168.9257         0.487429   
     61. A(O   2,Cr  0,C  15)           97.7073         0.335389   
     62. A(O   1,Cr  0,N   8)           93.7132         0.527575   
     63. A(N   7,Cr  0,C  15)          151.9386         0.307883   
     64. A(O   2,Cr  0,N   9)           93.5407         0.523976   
     65. A(O   3,Cr  0,N   7)          173.3139         0.527245   
     66. A(O   1,Cr  0,O   2)          167.2896         0.567804   
     67. A(O   3,Cr  0,N   8)           90.1123         0.540868   
     68. A(Cr  0,O   1,C  13)          119.6278         0.513030   
     69. A(Cr  0,O   2,C  14)          118.6077         0.514748   
     70. A(Cr  0,O   3,C  15)          119.1359         0.525332   
     71. A(Cr  0,N   7,C  16)          127.6734         0.455762   
     72. A(C  10,N   7,C  16)          120.1525         0.441266   
     73. A(Cr  0,N   7,C  10)          112.1741         0.454596   
     74. A(C  11,N   8,C  17)          120.4883         0.442076   
     75. A(Cr  0,N   8,C  17)          127.0463         0.467973   
     76. A(Cr  0,N   8,C  11)          112.2053         0.466020   
     77. A(Cr  0,N   9,C  12)          110.8002         0.459892   
     78. A(C  12,N   9,C  18)          119.7393         0.441643   
     79. A(Cr  0,N   9,C  18)          129.4603         0.461980   
     80. A(C  13,C  10,C  19)          123.0235         0.401112   
     81. A(N   7,C  10,C  19)          121.7142         0.439031   
     82. A(N   7,C  10,C  13)          115.2608         0.402107   
     83. A(N   8,C  11,C  20)          121.5464         0.439446   
     84. A(C  14,C  11,C  20)          123.2606         0.402001   
     85. A(N   8,C  11,C  14)          115.1931         0.402726   
     86. A(C  15,C  12,C  21)          122.4788         0.401661   
     87. A(N   9,C  12,C  21)          121.7508         0.438873   
     88. A(N   9,C  12,C  15)          115.7701         0.402373   
     89. A(O   4,C  13,C  10)          119.5932         0.436941   
     90. A(O   1,C  13,C  10)          113.2759         0.413978   
     91. A(O   1,C  13,O   4)          127.1273         0.494007   
     92. A(O   5,C  14,C  11)          120.1804         0.437822   
     93. A(O   2,C  14,C  11)          113.1639         0.413507   
     94. A(O   2,C  14,O   5)          126.6395         0.492973   
     95. A(O   3,C  15,O   6)          127.0086         0.494212   
     96. A(O   3,C  15,C  12)          113.1174         0.414065   
     97. A(O   6,C  15,C  12)          119.8736         0.438090   
     98. A(Cr  0,C  15,C  12)           76.1522         0.276744   
     99. A(Cr  0,C  15,O   6)          163.9435         0.323034   
    100. A(Cr  0,C  15,O   3)           36.9863         0.306928   
    101. A(N   7,C  16,C  22)          121.2616         0.440172   
    102. A(C  22,C  16,H  28)          122.7242         0.356366   
    103. A(N   7,C  16,H  28)          116.0141         0.358055   
    104. A(N   8,C  17,C  23)          121.0605         0.440810   
    105. A(C  23,C  17,H  29)          122.7615         0.356313   
    106. A(N   8,C  17,H  29)          116.1750         0.358663   
    107. A(N   9,C  18,C  24)          121.7372         0.441107   
    108. A(C  24,C  18,H  30)          121.5020         0.356785   
    109. A(N   9,C  18,H  30)          116.7607         0.358701   
    110. A(C  10,C  19,C  25)          118.5785         0.437273   
    111. A(C  25,C  19,H  31)          123.0384         0.356117   
    112. A(C  10,C  19,H  31)          118.3830         0.356612   
    113. A(C  11,C  20,C  26)          118.5263         0.437484   
    114. A(C  26,C  20,H  32)          122.9513         0.356026   
    115. A(C  11,C  20,H  32)          118.5211         0.356908   
    116. A(C  27,C  21,H  33)          123.0899         0.356463   
    117. A(C  12,C  21,H  33)          118.1410         0.356687   
    118. A(C  12,C  21,C  27)          118.7690         0.437785   
    119. A(C  16,C  22,C  25)          119.0200         0.436195   
    120. A(C  25,C  22,H  34)          121.3190         0.355206   
    121. A(C  16,C  22,H  34)          119.6608         0.356566   
    122. A(C  17,C  23,C  26)          119.0126         0.436318   
    123. A(C  26,C  23,H  35)          121.3222         0.355416   
    124. A(C  17,C  23,H  35)          119.6644         0.356510   
    125. A(C  27,C  24,H  36)          121.3720         0.355361   
    126. A(C  18,C  24,H  36)          119.7537         0.356827   
    127. A(C  18,C  24,C  27)          118.8743         0.436692   
    128. A(C  19,C  25,C  22)          119.2730         0.435528   
    129. A(C  22,C  25,H  37)          120.3091         0.354885   
    130. A(C  19,C  25,H  37)          120.4178         0.355730   
    131. A(C  20,C  26,C  23)          119.3600         0.435616   
    132. A(C  23,C  26,H  38)          120.2762         0.355077   
    133. A(C  20,C  26,H  38)          120.3630         0.355630   
    134. A(C  24,C  27,H  39)          120.3676         0.355058   
    135. A(C  21,C  27,H  39)          120.5031         0.356096   
    136. A(C  21,C  27,C  24)          119.1292         0.436139   
    137. D(C  13,O   1,Cr  0,C  15)   -153.7368         0.003959   
    138. D(C  13,O   1,Cr  0,N   8)     91.8658         0.003959   
    139. D(C  13,O   1,Cr  0,O   2)     28.8010         0.003959   
    140. D(C  13,O   1,Cr  0,O   3)   -177.7043         0.003959   
    141. D(C  13,O   1,Cr  0,N   7)     -1.5425         0.003959   
    142. D(C  13,O   1,Cr  0,N   9)    -96.2872         0.003959   
    143. D(C  14,O   2,Cr  0,N   8)     -0.1795         0.004125   
    144. D(C  14,O   2,Cr  0,C  15)   -113.2523         0.004125   
    145. D(C  14,O   2,Cr  0,O   1)     64.1965         0.004125   
    146. D(C  14,O   2,Cr  0,N   9)   -170.6928         0.004125   
    147. D(C  14,O   2,Cr  0,N   7)     93.9954         0.004125   
    148. D(C  14,O   2,Cr  0,O   3)    -89.2169         0.004125   
    149. D(C  15,O   3,Cr  0,O   2)    -94.3481         0.004712   
    150. D(C  15,O   3,Cr  0,N   9)     -1.7613         0.004712   
    151. D(C  15,O   3,Cr  0,N   7)     56.8845         0.004712   
    152. D(C  15,O   3,Cr  0,O   1)     91.3236         0.004712   
    153. D(C  15,O   3,Cr  0,N   8)   -174.9401         0.004712   
    154. D(C  10,N   7,Cr  0,O   3)     35.4453         0.002478   
    155. D(C  16,N   7,Cr  0,N   9)    -86.6259         0.002478   
    156. D(C  16,N   7,Cr  0,C  15)    -98.4488         0.002478   
    157. D(C  16,N   7,Cr  0,O   3)   -144.5625         0.002478   
    158. D(C  16,N   7,Cr  0,O   2)      6.8706         0.002478   
    159. D(C  10,N   7,Cr  0,N   8)    -92.5507         0.002478   
    160. D(C  10,N   7,Cr  0,N   9)     93.3818         0.002478   
    161. D(C  16,N   7,Cr  0,N   8)     87.4416         0.002478   
    162. D(C  16,N   7,Cr  0,O   1)   -179.5115         0.002478   
    163. D(C  10,N   7,Cr  0,O   2)   -173.1216         0.002478   
    164. D(C  10,N   7,Cr  0,C  15)     81.5589         0.002478   
    165. D(C  10,N   7,Cr  0,O   1)      0.4962         0.002478   
    166. D(C  11,N   8,Cr  0,O   1)   -171.0828         0.002780   
    167. D(C  11,N   8,Cr  0,O   2)     -2.5497         0.002780   
    168. D(C  17,N   8,Cr  0,C  15)    -82.3176         0.002780   
    169. D(C  17,N   8,Cr  0,N   9)   -117.7387         0.002780   
    170. D(C  11,N   8,Cr  0,O   3)     94.0265         0.002780   
    171. D(C  17,N   8,Cr  0,O   2)   -176.6561         0.002780   
    172. D(C  17,N   8,Cr  0,O   3)    -80.0798         0.002780   
    173. D(C  11,N   8,Cr  0,C  15)     91.7888         0.002780   
    174. D(C  17,N   8,Cr  0,N   7)     94.6557         0.002780   
    175. D(C  11,N   8,Cr  0,N   9)     56.3677         0.002780   
    176. D(C  17,N   8,Cr  0,O   1)     14.8108         0.002780   
    177. D(C  11,N   8,Cr  0,N   7)    -91.2379         0.002780   
    178. D(C  18,N   9,Cr  0,C  15)   -179.6913         0.002616   
    179. D(C  18,N   9,Cr  0,N   8)   -140.6495         0.002616   
    180. D(C  18,N   9,Cr  0,O   2)    -82.8016         0.002616   
    181. D(C  18,N   9,Cr  0,O   1)     86.8064         0.002616   
    182. D(C  12,N   9,Cr  0,C  15)      0.1349         0.002616   
    183. D(C  12,N   9,Cr  0,N   7)   -173.2866         0.002616   
    184. D(C  12,N   9,Cr  0,O   3)      0.9822         0.002616   
    185. D(C  12,N   9,Cr  0,N   8)     39.1767         0.002616   
    186. D(C  12,N   9,Cr  0,O   2)     97.0246         0.002616   
    187. D(C  12,N   9,Cr  0,O   1)    -93.3675         0.002616   
    188. D(C  18,N   9,Cr  0,O   3)   -178.8439         0.002616   
    189. D(C  18,N   9,Cr  0,N   7)      6.8872         0.002616   
    190. D(C  19,C  10,N   7,C  16)     -0.0039         0.036637   
    191. D(C  19,C  10,N   7,Cr  0)    179.9890         0.036637   
    192. D(C  13,C  10,N   7,C  16)   -179.5804         0.036637   
    193. D(C  13,C  10,N   7,Cr  0)      0.4125         0.036637   
    194. D(C  20,C  11,N   8,C  17)     -0.9654         0.036693   
    195. D(C  20,C  11,N   8,Cr  0)   -175.5079         0.036693   
    196. D(C  14,C  11,N   8,C  17)    179.0772         0.036693   
    197. D(C  14,C  11,N   8,Cr  0)      4.5346         0.036693   
    198. D(C  15,C  12,N   9,C  18)    179.6128         0.036397   
    199. D(C  15,C  12,N   9,Cr  0)     -0.2326         0.036397   
    200. D(C  21,C  12,N   9,C  18)     -0.1612         0.036397   
    201. D(C  21,C  12,N   9,Cr  0)    179.9934         0.036397   
    202. D(O   4,C  13,C  10,C  19)     -1.8339         0.010404   
    203. D(O   4,C  13,C  10,N   7)    177.7364         0.010404   
    204. D(O   1,C  13,C  10,C  19)    178.8118         0.010404   
    205. D(O   1,C  13,C  10,N   7)     -1.6179         0.010404   
    206. D(C  10,C  13,O   1,Cr  0)      2.1438         0.047658   
    207. D(O   4,C  13,O   1,Cr  0)   -177.1519         0.047658   
    208. D(O   5,C  14,C  11,N   8)    173.8512         0.010561   
    209. D(O   2,C  14,C  11,C  20)    175.2624         0.010561   
    210. D(O   2,C  14,C  11,N   8)     -4.7810         0.010561   
    211. D(O   5,C  14,C  11,C  20)     -6.1054         0.010561   
    212. D(C  11,C  14,O   2,Cr  0)      2.5704         0.046147   
    213. D(O   5,C  14,O   2,Cr  0)   -175.9560         0.046147   
    214. D(O   6,C  15,C  12,C  21)     -1.1341         0.011366   
    215. D(O   6,C  15,C  12,N   9)    179.0937         0.011366   
    216. D(O   3,C  15,C  12,C  21)    178.6606         0.011366   
    217. D(O   3,C  15,C  12,N   9)     -1.1116         0.011366   
    218. D(Cr  0,C  15,C  12,C  21)    179.9386         0.011366   
    219. D(Cr  0,C  15,C  12,N   9)      0.1664         0.011366   
    220. D(C  12,C  15,O   3,Cr  0)      2.0627         0.052060   
    221. D(C  12,C  15,Cr  0,N   9)     -0.1149         0.001508   
    222. D(C  12,C  15,Cr  0,N   8)   -172.5107         0.001508   
    223. D(C  12,C  15,Cr  0,N   7)     13.9181         0.001508   
    224. D(C  12,C  15,Cr  0,O   3)   -178.0461         0.001508   
    225. D(C  12,C  15,Cr  0,O   2)    -89.3767         0.001508   
    226. D(C  12,C  15,Cr  0,O   1)     91.1866         0.001508   
    227. D(O   6,C  15,Cr  0,N   9)   -176.7503         0.001508   
    228. D(O   6,C  15,Cr  0,N   8)     10.8539         0.001508   
    229. D(O   6,C  15,Cr  0,N   7)   -162.7173         0.001508   
    230. D(O   6,C  15,O   3,Cr  0)   -178.1602         0.052060   
    231. D(O   6,C  15,Cr  0,O   3)      5.3184         0.001508   
    232. D(O   6,C  15,Cr  0,O   2)     93.9879         0.001508   
    233. D(O   6,C  15,Cr  0,O   1)    -85.4488         0.001508   
    234. D(O   3,C  15,Cr  0,N   9)    177.9313         0.001508   
    235. D(O   3,C  15,Cr  0,N   8)      5.5355         0.001508   
    236. D(O   3,C  15,Cr  0,N   7)   -168.0358         0.001508   
    237. D(O   3,C  15,Cr  0,O   2)     88.6694         0.001508   
    238. D(O   3,C  15,Cr  0,O   1)    -90.7673         0.001508   
    239. D(H  28,C  16,N   7,C  10)   -179.9705         0.037782   
    240. D(H  28,C  16,N   7,Cr  0)      0.0378         0.037782   
    241. D(C  22,C  16,N   7,C  10)     -0.1133         0.037782   
    242. D(C  22,C  16,N   7,Cr  0)    179.8950         0.037782   
    243. D(H  29,C  17,N   8,C  11)   -178.7677         0.038572   
    244. D(H  29,C  17,N   8,Cr  0)     -5.1015         0.038572   
    245. D(C  23,C  17,N   8,C  11)      0.6199         0.038572   
    246. D(C  23,C  17,N   8,Cr  0)    174.2861         0.038572   
    247. D(H  30,C  18,N   9,C  12)   -179.8643         0.038426   
    248. D(H  30,C  18,N   9,Cr  0)     -0.0515         0.038426   
    249. D(C  24,C  18,N   9,C  12)      0.0517         0.038426   
    250. D(C  24,C  18,N   9,Cr  0)    179.8645         0.038426   
    251. D(H  31,C  19,C  10,C  13)     -0.2306         0.028024   
    252. D(H  31,C  19,C  10,N   7)   -179.7738         0.028024   
    253. D(C  25,C  19,C  10,C  13)    179.6449         0.028024   
    254. D(C  25,C  19,C  10,N   7)      0.1017         0.028024   
    255. D(H  32,C  20,C  11,C  14)      0.2816         0.028296   
    256. D(H  32,C  20,C  11,N   8)   -179.6723         0.028296   
    257. D(C  26,C  20,C  11,C  14)   -179.3256         0.028296   
    258. D(C  26,C  20,C  11,N   8)      0.7204         0.028296   
    259. D(H  33,C  21,C  12,C  15)      0.3187         0.028084   
    260. D(H  33,C  21,C  12,N   9)   -179.9225         0.028084   
    261. D(C  27,C  21,C  12,C  15)   -179.6269         0.028084   
    262. D(C  27,C  21,C  12,N   9)      0.1318         0.028084   
    263. D(C  25,C  22,C  16,N   7)      0.1286         0.028042   
    264. D(H  34,C  22,C  16,H  28)     -0.1607         0.028042   
    265. D(H  34,C  22,C  16,N   7)    179.9918         0.028042   
    266. D(C  25,C  22,C  16,H  28)    179.9760         0.028042   
    267. D(H  35,C  23,C  17,H  29)     -0.3889         0.027957   
    268. D(H  35,C  23,C  17,N   8)   -179.7353         0.027957   
    269. D(C  26,C  23,C  17,H  29)    179.2959         0.027957   
    270. D(C  26,C  23,C  17,N   8)     -0.0506         0.027957   
    271. D(H  36,C  24,C  18,H  30)     -0.0362         0.028284   
    272. D(H  36,C  24,C  18,N   9)   -179.9482         0.028284   
    273. D(C  27,C  24,C  18,H  30)    179.9947         0.028284   
    274. D(C  27,C  24,C  18,N   9)      0.0828         0.028284   
    275. D(H  37,C  25,C  22,H  34)      0.0388         0.026732   
    276. D(H  37,C  25,C  22,C  16)    179.8997         0.026732   
    277. D(C  19,C  25,C  22,H  34)   -179.8889         0.026732   
    278. D(C  19,C  25,C  22,C  16)     -0.0280         0.026732   
    279. D(H  37,C  25,C  19,H  31)     -0.1409         0.027539   
    280. D(H  37,C  25,C  19,C  10)    179.9898         0.027539   
    281. D(C  22,C  25,C  19,H  31)    179.7867         0.027539   
    282. D(C  22,C  25,C  19,C  10)     -0.0826         0.027539   
    283. D(H  38,C  26,C  23,H  35)     -0.1692         0.026901   
    284. D(H  38,C  26,C  23,C  17)   -179.8484         0.026901   
    285. D(C  20,C  26,C  23,H  35)    179.5021         0.026901   
    286. D(C  20,C  26,C  23,C  17)     -0.1772         0.026901   
    287. D(H  38,C  26,C  20,H  32)     -0.0632         0.027431   
    288. D(H  38,C  26,C  20,C  11)    179.5255         0.027431   
    289. D(C  23,C  26,C  20,H  32)   -179.7341         0.027431   
    290. D(C  23,C  26,C  20,C  11)     -0.1454         0.027431   
    291. D(H  39,C  27,C  24,H  36)     -0.0192         0.026862   
    292. D(H  39,C  27,C  24,C  18)    179.9493         0.026862   
    293. D(C  21,C  27,C  24,H  36)    179.9230         0.026862   
    294. D(C  21,C  27,C  24,C  18)     -0.1085         0.026862   
    295. D(H  39,C  27,C  21,H  33)      0.0049         0.027863   
    296. D(H  39,C  27,C  21,C  12)    179.9477         0.027863   
    297. D(C  24,C  27,C  21,H  33)   -179.9373         0.027863   
    298. D(C  24,C  27,C  21,C  12)      0.0056         0.027863   
    -----------------------------------------------------------------

Number of atoms                         .... 40
Number of degrees of freedom            .... 298

         *************************************************************
         *                GEOMETRY OPTIMIZATION CYCLE   1            *
         *************************************************************
---------------------------------
CARTESIAN COORDINATES (ANGSTROEM)
---------------------------------
  Cr     5.026174    0.021018   -0.242431
  O      4.263824   -0.228517   -2.037036
  O      5.577664   -0.100795    1.631225
  O      6.540151    1.052333   -0.849407
  O      2.575588   -1.136319   -3.214014
  O      6.700255   -1.351487    3.123247
  O      7.288724    3.126149   -1.286342
  N      3.252232   -0.993456    0.238193
  N      6.156568   -1.701512   -0.336804
  N      4.225521    1.928745   -0.016980
  C      2.531814   -1.298009   -0.851893
  C      6.721658   -2.002294    0.842067
  C      5.106109    2.864373   -0.406085
  C      3.141580   -0.863891   -2.174232
  C      6.331594   -1.096455    1.995116
  C      6.443927    2.346152   -0.901019
  C      2.810705   -1.337685    1.453241
  C      6.440260   -2.418826   -1.426706
  C      3.025756    2.297296    0.440071
  C      1.323344   -1.969508   -0.761999
  C      7.594939   -3.067896    0.975653
  C      4.805961    4.215499   -0.351302
  C      1.609916   -2.008493    1.618413
  C      7.311115   -3.495091   -1.367592
  C      2.656581    3.628666    0.525395
  C      0.855626   -2.329170    0.493967
  C      7.894501   -3.824512   -0.148966
  C      3.562211    4.603958    0.121575
  H      3.443578   -1.058974    2.284255
  H      5.961987   -2.103010   -2.343219
  H      2.355953    1.505295    0.742068
  H      0.789775   -2.190560   -1.674502
  H      8.017556   -3.269314    1.948711
  H      5.557332    4.917880   -0.680222
  H      1.278166   -2.274065    2.611524
  H      7.527910   -4.057159   -2.264054
  H      1.678236    3.890653    0.900759
  H     -0.084306   -2.854106    0.598684
  H      8.579091   -4.659051   -0.080000
  H      3.298672    5.651391    0.177146

----------------------------
CARTESIAN COORDINATES (A.U.)
----------------------------
  NO LB      ZA    FRAG     MASS         X           Y           Z
   0 Cr   24.0000    0    52.000    9.498092    0.039718   -0.458128
   1 O     8.0000    0    15.999    8.057460   -0.431835   -3.849440
   2 O     8.0000    0    15.999   10.540257   -0.190475    3.082569
   3 O     8.0000    0    15.999   12.359094    1.988621   -1.605147
   4 O     8.0000    0    15.999    4.867156   -2.147332   -6.073606
   5 O     8.0000    0    15.999   12.661647   -2.553940    5.902081
   6 O     8.0000    0    15.999   13.773692    5.907565   -2.430834
   7 N     7.0000    0    14.007    6.145828   -1.877360    0.450120
   8 N     7.0000    0    14.007   11.634227   -3.215392   -0.636467
   9 N     7.0000    0    14.007    7.985077    3.644800   -0.032088
  10 C     6.0000    0    12.011    4.784435   -2.452882   -1.609844
  11 C     6.0000    0    12.011   12.702093   -3.783787    1.591276
  12 C     6.0000    0    12.011    9.649148    5.412881   -0.767389
  13 C     6.0000    0    12.011    5.936726   -1.632517   -4.108703
  14 C     6.0000    0    12.011   11.964979   -2.072000    3.770223
  15 C     6.0000    0    12.011   12.177257    4.433585   -1.702679
  16 C     6.0000    0    12.011    5.311463   -2.527858    2.746227
  17 C     6.0000    0    12.011   12.170328   -4.570919   -2.696084
  18 C     6.0000    0    12.011    5.717850    4.341260    0.831614
  19 C     6.0000    0    12.011    2.500758   -3.721831   -1.439969
  20 C     6.0000    0    12.011   14.352355   -5.797483    1.843717
  21 C     6.0000    0    12.011    9.081950    7.966139   -0.663865
  22 C     6.0000    0    12.011    3.042300   -3.795502    3.058357
  23 C     6.0000    0    12.011   13.816005   -6.604765   -2.584374
  24 C     6.0000    0    12.011    5.020211    6.857185    0.992853
  25 C     6.0000    0    12.011    1.616899   -4.401493    0.933462
  26 C     6.0000    0    12.011   14.918445   -7.227280   -0.281505
  27 C     6.0000    0    12.011    6.731603    8.700220    0.229743
  28 H     1.0000    0     1.008    6.507419   -2.001171    4.316616
  29 H     1.0000    0     1.008   11.266523   -3.974113   -4.428042
  30 H     1.0000    0     1.008    4.452106    2.844595    1.402305
  31 H     1.0000    0     1.008    1.492458   -4.139558   -3.164350
  32 H     1.0000    0     1.008   15.150985   -6.178108    3.682530
  33 H     1.0000    0     1.008   10.501836    9.293446   -1.285433
  34 H     1.0000    0     1.008    2.415384   -4.297360    4.935065
  35 H     1.0000    0     1.008   14.225688   -7.666919   -4.278442
  36 H     1.0000    0     1.008    3.171406    7.352269    1.702188
  37 H     1.0000    0     1.008   -0.159315   -5.393479    1.131349
  38 H     1.0000    0     1.008   16.212132   -8.804330   -0.151178
  39 H     1.0000    0     1.008    6.233587   10.679581    0.334757

--------------------------------
INTERNAL COORDINATES (ANGSTROEM)
--------------------------------
 Cr     0   0   0     0.000000000000     0.00000000     0.00000000
 O      1   0   0     1.965719294495     0.00000000     0.00000000
 O      1   2   0     1.956927804853   167.28960305     0.00000000
 O      1   2   3     1.929807464575    94.87304331   153.49466767
 O      2   1   4     2.249338230543   145.08661158   180.15335562
 O      3   1   4     2.247347476611   144.20020674   267.78778099
 O      4   1   2     2.247662459626   144.63710839    89.95413955
 N      1   2   5     2.099292058151    79.62756092   356.31520156
 N      1   2   5     2.062475808165    93.71319991    89.72343006
 N      1   2   5     2.081176514940    93.78786194   261.57049700
 C      8   1   2     1.341656480597   112.17407388     0.49623250
 C      9   1   2     1.341466866630   112.20533311   188.91716430
 C     10   1   2     1.342474462011   110.80023193   266.63252329
 C      5   2   1     1.214788280637    27.36760308     4.32793684
 C      6   3   1     1.213932373366    27.67508341     6.07574001
 C      7   4   1     1.212662816098    27.47100594     2.77723101
 C      8   1   2     1.337827095881   127.67340692   180.48848716
 C      9   1   2     1.335255366986   127.04634167    14.81082907
 C     10   1   2     1.335725088267   129.46026062    86.80637921
 C     11   8   1     1.385421083692   121.71424419   179.98898172
 C     12   9   1     1.384186601135   121.54635015   184.49206646
 C     13  10   1     1.385146731169   121.75075264   179.99337588
 C     17   8   1     1.385337282025   121.26157601   179.89503628
 C     18   9   1     1.385723365700   121.06049119   174.28611645
 C     19  10   1     1.384238578606   121.73720103   179.86450101
 C     20  11   8     1.387648181249   118.57846558     0.10166779
 C     21  12   9     1.388154551360   118.52633846     0.72043641
 C     22  13  10     1.386155515918   118.76904441     0.13180763
 H     17   8   1     1.081106990009   116.01409520     0.03784349
 H     18   9   1     1.080962944580   116.17501982   354.89847777
 H     19  10   1     1.080325798460   116.76072488   359.94854353
 H     20  11   8     1.079917399376   118.38298861   180.22621936
 H     21  12   9     1.079822305186   118.52112276   180.32765385
 H     22  13  10     1.079854534279   118.14100865   180.07748587
 H     23  17   8     1.080211094187   119.66083359   179.99184262
 H     24  18   9     1.080076213095   119.66436142   180.26466791
 H     25  19  10     1.080136222747   119.75368766   180.05180791
 H     26  20  11     1.081663357431   120.41783977   179.98979342
 H     27  21  12     1.081607655195   120.36300243   179.52553953
 H     28  22  13     1.081506740641   120.50312066   179.94769119

---------------------------
INTERNAL COORDINATES (A.U.)
---------------------------
 Cr     0   0   0     0.000000000000     0.00000000     0.00000000
 O      1   0   0     3.714671122760     0.00000000     0.00000000
 O      1   2   0     3.698057615027   167.28960305     0.00000000
 O      1   2   3     3.646807599244    94.87304331   153.49466767
 O      2   1   4     4.250633238286   145.08661158   180.15335562
 O      3   1   4     4.246871258553   144.20020674   267.78778099
 O      4   1   2     4.247466490188   144.63710839    89.95413955
 N      1   2   5     3.967087065021    79.62756092   356.31520156
 N      1   2   5     3.897514435269    93.71319991    89.72343006
 N      1   2   5     3.932853649586    93.78786194   261.57049700
 C      8   1   2     2.535363314130   112.17407388     0.49623250
 C      9   1   2     2.535004995659   112.20533311   188.91716430
 C     10   1   2     2.536909074985   110.80023193   266.63252329
 C      5   2   1     2.295617161100    27.36760308     4.32793684
 C      6   3   1     2.293999730763    27.67508341     6.07574001
 C      7   4   1     2.291600615215    27.47100594     2.77723101
 C      8   1   2     2.528126825755   127.67340692   180.48848716
 C      9   1   2     2.523266962451   127.04634167    14.81082907
 C     10   1   2     2.524154607033   129.46026062    86.80637921
 C     11   8   1     2.618066428337   121.71424419   179.98898172
 C     12   9   1     2.615733594388   121.54635015   184.49206646
 C     13  10   1     2.617547977206   121.75075264   179.99337588
 C     17   8   1     2.617908066138   121.26157601   179.89503628
 C     18   9   1     2.618637658548   121.06049119   174.28611645
 C     19  10   1     2.615831817574   121.73720103   179.86450101
 C     20  11   8     2.622275032795   118.57846558     0.10166779
 C     21  12   9     2.623231933626   118.52633846     0.72043641
 C     22  13  10     2.619454304109   118.76904441     0.13180763
 H     17   8   1     2.042996132585   116.01409520     0.03784349
 H     18   9   1     2.042723926172   116.17501982   354.89847777
 H     19  10   1     2.041519894500   116.76072488   359.94854353
 H     20  11   8     2.040748132076   118.38298861   180.22621936
 H     21  12   9     2.040568430101   118.52112276   180.32765385
 H     22  13  10     2.040629334260   118.14100865   180.07748587
 H     23  17   8     2.041303134837   119.66083359   179.99184262
 H     24  18   9     2.041048246512   119.66436142   180.26466791
 H     25  19  10     2.041161648320   119.75368766   180.05180791
 H     26  20  11     2.044047514642   120.41783977   179.98979342
 H     27  21  12     2.043942252672   120.36300243   179.52553953
 H     28  22  13     2.043751551800   120.50312066   179.94769119

---------------------
BASIS SET INFORMATION
---------------------
There are 5 groups of distinct atoms

 Group   1 Type Cr  : 23s18p5d1f contracted to 6s6p3d1f pattern {666311/663111/311/1}
 Group   2 Type O   : 11s5p1d contracted to 4s3p1d pattern {6311/311/1}
 Group   3 Type N   : 11s5p1d contracted to 4s3p1d pattern {6311/311/1}
 Group   4 Type C   : 11s5p1d contracted to 4s3p1d pattern {6311/311/1}
 Group   5 Type H   : 5s1p contracted to 3s1p pattern {311/1}

Atom   0Cr   basis set group =>   1
Atom   1O    basis set group =>   2
Atom   2O    basis set group =>   2
Atom   3O    basis set group =>   2
Atom   4O    basis set group =>   2
Atom   5O    basis set group =>   2
Atom   6O    basis set group =>   2
Atom   7N    basis set group =>   3
Atom   8N    basis set group =>   3
Atom   9N    basis set group =>   3
Atom  10C    basis set group =>   4
Atom  11C    basis set group =>   4
Atom  12C    basis set group =>   4
Atom  13C    basis set group =>   4
Atom  14C    basis set group =>   4
Atom  15C    basis set group =>   4
Atom  16C    basis set group =>   4
Atom  17C    basis set group =>   4
Atom  18C    basis set group =>   4
Atom  19C    basis set group =>   4
Atom  20C    basis set group =>   4
Atom  21C    basis set group =>   4
Atom  22C    basis set group =>   4
Atom  23C    basis set group =>   4
Atom  24C    basis set group =>   4
Atom  25C    basis set group =>   4
Atom  26C    basis set group =>   4
Atom  27C    basis set group =>   4
Atom  28H    basis set group =>   5
Atom  29H    basis set group =>   5
Atom  30H    basis set group =>   5
Atom  31H    basis set group =>   5
Atom  32H    basis set group =>   5
Atom  33H    basis set group =>   5
Atom  34H    basis set group =>   5
Atom  35H    basis set group =>   5
Atom  36H    basis set group =>   5
Atom  37H    basis set group =>   5
Atom  38H    basis set group =>   5
Atom  39H    basis set group =>   5
---------------------------------
AUXILIARY/J BASIS SET INFORMATION
---------------------------------
There are 5 groups of distinct atoms

 Group   1 Type Cr  : 19s5p5d3f3g contracted to 8s5p5d2f3g pattern {121111111/11111/11111/21/111}
 Group   2 Type O   : 12s5p4d2f1g contracted to 6s4p3d1f1g pattern {711111/2111/211/2/1}
 Group   3 Type N   : 12s5p4d2f1g contracted to 6s4p3d1f1g pattern {711111/2111/211/2/1}
 Group   4 Type C   : 12s5p4d2f1g contracted to 6s4p3d1f1g pattern {711111/2111/211/2/1}
 Group   5 Type H   : 5s2p1d contracted to 3s1p1d pattern {311/2/1}

Atom   0Cr   basis set group =>   1
Atom   1O    basis set group =>   2
Atom   2O    basis set group =>   2
Atom   3O    basis set group =>   2
Atom   4O    basis set group =>   2
Atom   5O    basis set group =>   2
Atom   6O    basis set group =>   2
Atom   7N    basis set group =>   3
Atom   8N    basis set group =>   3
Atom   9N    basis set group =>   3
Atom  10C    basis set group =>   4
Atom  11C    basis set group =>   4
Atom  12C    basis set group =>   4
Atom  13C    basis set group =>   4
Atom  14C    basis set group =>   4
Atom  15C    basis set group =>   4
Atom  16C    basis set group =>   4
Atom  17C    basis set group =>   4
Atom  18C    basis set group =>   4
Atom  19C    basis set group =>   4
Atom  20C    basis set group =>   4
Atom  21C    basis set group =>   4
Atom  22C    basis set group =>   4
Atom  23C    basis set group =>   4
Atom  24C    basis set group =>   4
Atom  25C    basis set group =>   4
Atom  26C    basis set group =>   4
Atom  27C    basis set group =>   4
Atom  28H    basis set group =>   5
Atom  29H    basis set group =>   5
Atom  30H    basis set group =>   5
Atom  31H    basis set group =>   5
Atom  32H    basis set group =>   5
Atom  33H    basis set group =>   5
Atom  34H    basis set group =>   5
Atom  35H    basis set group =>   5
Atom  36H    basis set group =>   5
Atom  37H    basis set group =>   5
Atom  38H    basis set group =>   5
Atom  39H    basis set group =>   5


           ************************************************************
           *        Program running with 16 parallel MPI-processes    *
           *              working on a common directory               *
           ************************************************************
------------------------------------------------------------------------------
                           ORCA GTO INTEGRAL CALCULATION
                           -- RI-GTO INTEGRALS CHOSEN --
------------------------------------------------------------------------------
------------------------------------------------------------------------------
                   ___                                                        
                  /   \      - P O W E R E D   B Y -                         
                 /     \                                                     
                 |  |  |   _    _      __       _____    __    __             
                 |  |  |  | |  | |    /  \     |  _  \  |  |  /  |          
                  \  \/   | |  | |   /    \    | | | |  |  | /  /          
                 / \  \   | |__| |  /  /\  \   | |_| |  |  |/  /          
                |  |  |   |  __  | /  /__\  \  |    /   |      \           
                |  |  |   | |  | | |   __   |  |    \   |  |\   \          
                \     /   | |  | | |  |  |  |  | |\  \  |  | \   \       
                 \___/    |_|  |_| |__|  |__|  |_| \__\ |__|  \__/        
                                                                              
                      - O R C A' S   B I G   F R I E N D -                    
                                      &                                       
                       - I N T E G R A L  F E E D E R -                       
                                                                              
 v1 FN, 2020, v2 2021                                                         
------------------------------------------------------------------------------


Reading SHARK input file picolinate_pople.SHARKINP.tmp ... ok
----------------------
SHARK INTEGRAL PACKAGE
----------------------

Number of atoms                             ...     40
Number of basis functions                   ...    604
Number of shells                            ...    280
Maximum angular momentum                    ...      3
Integral batch strategy                     ... SHARK/LIBINT Hybrid
RI-J (if used) integral strategy            ... SPLIT-RIJ (Revised 2003 algorithm where possible)
Printlevel                                  ...      1
Contraction scheme used                     ... SEGMENTED contraction
Coulomb Range Separation                    ... NOT USED
Exchange Range Separation                   ... NOT USED
Finite Nucleus Model                        ... NOT USED
Auxiliary Coulomb fitting basis             ... AVAILABLE
   # of basis functions in Aux-J            ...   1544
   # of shells in Aux-J                     ...    488
   Maximum angular momentum in Aux-J        ...      4
Auxiliary J/K fitting basis                 ... NOT available
Auxiliary Correlation fitting basis         ... NOT available
Auxiliary 'external' fitting basis          ... NOT available
Integral threshold                          ...     2.500000e-11
Primitive cut-off                           ...     2.500000e-12
Primitive pair pre-selection threshold      ...     2.500000e-12

Calculating pre-screening integrals         ... done (  0.0 sec) Dimension = 280
Organizing shell pair data                  ... done (  0.2 sec)
Shell pair information
Total number of shell pairs                 ...     39340
Shell pairs after pre-screening             ...     32392
Total number of primitive shell pairs       ...    168018
Primitive shell pairs kept                  ...     86070
          la=0 lb=0:   9197 shell pairs
          la=1 lb=0:  12656 shell pairs
          la=1 lb=1:   4384 shell pairs
          la=2 lb=0:   3263 shell pairs
          la=2 lb=1:   2353 shell pairs
          la=2 lb=2:    289 shell pairs
          la=3 lb=0:    129 shell pairs
          la=3 lb=1:     90 shell pairs
          la=3 lb=2:     30 shell pairs
          la=3 lb=3:      1 shell pairs

Calculating one electron integrals          ... done (  0.0 sec)
Calculating RI/J V-Matrix + Cholesky decomp.... done (  0.1 sec)
Calculating Nuclear repulsion               ... done (  0.0 sec) ENN=   3190.613045200105 Eh

SHARK setup successfully completed in   0.6 seconds

Maximum memory used throughout the entire GTOINT-calculation: 51.8 MB


           ************************************************************
           *        Program running with 16 parallel MPI-processes    *
           *              working on a common directory               *
           ************************************************************
-------------------------------------------------------------------------------
                                 ORCA SCF
-------------------------------------------------------------------------------

------------
SCF SETTINGS
------------
Hamiltonian:
 Density Functional     Method          .... DFT(GTOs)
 Exchange Functional    Exchange        .... B88
   X-Alpha parameter    XAlpha          ....  0.666667
   Becke's b parameter  XBeta           ....  0.004200
 Correlation Functional Correlation     .... LYP
 LDA part of GGA corr.  LDAOpt          .... VWN-5
 Gradients option       PostSCFGGA      .... off
 Hybrid DFT is turned on
   Fraction HF Exchange ScalHFX         ....  0.200000
   Scaling of DF-GGA-X  ScalDFX         ....  0.720000
   Scaling of DF-GGA-C  ScalDFC         ....  0.810000
   Scaling of DF-LDA-C  ScalLDAC        ....  1.000000
   Perturbative correction              ....  0.000000
   Density functional embedding theory  .... OFF
   NL short-range parameter             ....  4.800000
 RI-approximation to the Coulomb term is turned on
   Number of AuxJ basis functions       .... 1544
   RIJ-COSX (HFX calculated with COS-X)).... on


General Settings:
 Integral files         IntName         .... picolinate_pople
 Hartree-Fock type      HFTyp           .... UHF
 Total Charge           Charge          ....    0
 Multiplicity           Mult            ....    4
 Number of Electrons    NEL             ....  213
 Basis Dimension        Dim             ....  604
 Nuclear Repulsion      ENuc            ....   3190.6130452001 Eh

Convergence Acceleration:
 DIIS                   CNVDIIS         .... on
   Start iteration      DIISMaxIt       ....    12
   Startup error        DIISStart       ....  0.200000
   # of expansion vecs  DIISMaxEq       ....     5
   Bias factor          DIISBfac        ....   1.050
   Max. coefficient     DIISMaxC        ....  10.000
 Trust-Rad. Augm. Hess. CNVTRAH         .... auto
   Auto Start mean grad. ratio tolernc. ....  1.125000
   Auto Start start iteration           ....    20
   Auto Start num. interpolation iter.  ....    10
   Max. Number of Micro iterations      ....    16
   Max. Number of Macro iterations      .... Maxiter - #DIIS iter
   Number of Davidson start vectors     ....     2
   Converg. threshold I  (grad. norm)   ....   1.000e-05
   Converg. threshold II (energy diff.) ....   1.000e-08
   Grad. Scal. Fac. for Micro threshold ....   0.100
   Minimum threshold for Micro iter.    ....   0.010
   NR start threshold (gradient norm)   ....   0.001
   Initial trust radius                 ....   0.400
   Minimum AH scaling param. (alpha)    ....   1.000
   Maximum AH scaling param. (alpha)    .... 1000.000
   Orbital update algorithm             .... Taylor
   White noise on init. David. guess    .... on
   Maximum white noise                  ....   0.010
   Quad. conv. algorithm                .... NR
 SOSCF                  CNVSOSCF        .... off
 Level Shifting         CNVShift        .... on
   Level shift para.    LevelShift      ....    0.2500
   Turn off err/grad.   ShiftErr        ....    0.0010
 Zerner damping         CNVZerner       .... off
 Static damping         CNVDamp         .... on
   Fraction old density DampFac         ....    0.7000
   Max. Damping (<1)    DampMax         ....    0.9800
   Min. Damping (>=0)   DampMin         ....    0.0000
   Turn off err/grad.   DampErr         ....    0.1000
 Fernandez-Rico         CNVRico         .... off

SCF Procedure:
 Maximum # iterations   MaxIter         ....   125
 SCF integral mode      SCFMode         .... Direct
   Integral package                     .... SHARK and LIBINT hybrid scheme
 Reset frequency        DirectResetFreq ....    20
 Integral Threshold     Thresh          ....  2.500e-11 Eh
 Primitive CutOff       TCut            ....  2.500e-12 Eh

Convergence Tolerance:
 Convergence Check Mode ConvCheckMode   .... Total+1el-Energy
 Convergence forced     ConvForced      .... 0
 Energy Change          TolE            ....  1.000e-08 Eh
 1-El. energy change                    ....  1.000e-05 Eh
 DIIS Error             TolErr          ....  5.000e-07


Diagonalization of the overlap matrix:
Smallest eigenvalue                        ... 6.582e-07
Time for diagonalization                   ...    0.042 sec
Threshold for overlap eigenvalues          ... 1.000e-08
Number of eigenvalues below threshold      ... 0
Time for construction of square roots      ...    0.053 sec
Total time needed                          ...    0.097 sec

Time for model grid setup =    0.202 sec

------------------------------
INITIAL GUESS: MODEL POTENTIAL
------------------------------
Loading Hartree-Fock densities                     ... done
Calculating cut-offs                               ... done
Initializing the effective Hamiltonian             ... done
Setting up the integral package (SHARK)            ... done
Starting the Coulomb interaction                   ... done (   0.2 sec)
Reading the grid                                   ... done
Mapping shells                                     ... done
Starting the XC term evaluation                    ... done (   0.2 sec)
  promolecular density results
     # of electrons  =    212.990103894
     EX              =   -212.648905632
     EC              =     -7.703451341
     EX+EC           =   -220.352356973
Transforming the Hamiltonian                       ... done (   0.0 sec)
Diagonalizing the Hamiltonian                      ... done (   0.0 sec)
Back transforming the eigenvectors                 ... done (   0.0 sec)
Now organizing SCF variables                       ... done
                      ------------------
                      INITIAL GUESS DONE (   0.7 sec)
                      ------------------
-------------------
DFT GRID GENERATION
-------------------

General Integration Accuracy     IntAcc      ... 4.388
Radial Grid Type                 RadialGrid  ... OptM3 with GC (2021)
Angular Grid (max. ang.)         AngularGrid ... 4 (Lebedev-302)
Angular grid pruning method      GridPruning ... 4 (adaptive)
Weight generation scheme         WeightScheme... Becke
Basis function cutoff            BFCut       ... 1.0000e-11
Integration weight cutoff        WCut        ... 1.0000e-14
Angular grids for H and He will be reduced by one unit
Partially contracted basis set               ... off
Rotationally invariant grid construction     ... off

Total number of grid points                  ...   219258
Total number of batches                      ...     3446
Average number of points per batch           ...       63
Average number of grid points per atom       ...     5481
Time for grid setup =    0.919 sec

--------------------
COSX GRID GENERATION
--------------------

GRIDX 1
-------
General Integration Accuracy     IntAcc      ... 3.816
Radial Grid Type                 RadialGrid  ... OptM3 with GC (2021)
Angular Grid (max. ang.)         AngularGrid ... 1 (Lebedev-50)
Angular grid pruning method      GridPruning ... 4 (adaptive)
Weight generation scheme         WeightScheme... Becke
Basis function cutoff            BFCut       ... 1.0000e-11
Integration weight cutoff        WCut        ... 1.0000e-14
Angular grids for H and He will be reduced by one unit
Partially contracted basis set               ... on
Rotationally invariant grid construction     ... off

Total number of grid points                  ...    27280
Total number of batches                      ...      447
Average number of points per batch           ...       61
Average number of grid points per atom       ...      682
UseSFitting                                  ... on

GRIDX 2
-------
General Integration Accuracy     IntAcc      ... 4.020
Radial Grid Type                 RadialGrid  ... OptM3 with GC (2021)
Angular Grid (max. ang.)         AngularGrid ... 2 (Lebedev-110)
Angular grid pruning method      GridPruning ... 4 (adaptive)
Weight generation scheme         WeightScheme... Becke
Basis function cutoff            BFCut       ... 1.0000e-11
Integration weight cutoff        WCut        ... 1.0000e-14
Angular grids for H and He will be reduced by one unit
Partially contracted basis set               ... on
Rotationally invariant grid construction     ... off

Total number of grid points                  ...    66616
Total number of batches                      ...     1059
Average number of points per batch           ...       62
Average number of grid points per atom       ...     1665
UseSFitting                                  ... on

GRIDX 3
-------
General Integration Accuracy     IntAcc      ... 4.338
Radial Grid Type                 RadialGrid  ... OptM3 with GC (2021)
Angular Grid (max. ang.)         AngularGrid ... 3 (Lebedev-194)
Angular grid pruning method      GridPruning ... 4 (adaptive)
Weight generation scheme         WeightScheme... Becke
Basis function cutoff            BFCut       ... 1.0000e-11
Integration weight cutoff        WCut        ... 1.0000e-14
Angular grids for H and He will be reduced by one unit
Partially contracted basis set               ... on
Rotationally invariant grid construction     ... off

Total number of grid points                  ...   145854
Total number of batches                      ...     2302
Average number of points per batch           ...       63
Average number of grid points per atom       ...     3646
UseSFitting                                  ... on

Time for X-Grid setup             =    1.104 sec


--------------------
CPCM SOLVATION MODEL
--------------------
CPCM parameters:
  Epsilon                                         ...      80.4000
  Refrac                                          ...       1.3300
  Rsolv                                           ...       1.3000
  Surface type                                    ... GAUSSIAN VDW
  Epsilon function type                           ...         CPCM
Radii:
 Radius for Cr used is    4.5353 Bohr (=   2.4000 Ang.)
 Radius for O  used is    3.4469 Bohr (=   1.8240 Ang.)
 Radius for N  used is    3.5149 Bohr (=   1.8600 Ang.)
 Radius for C  used is    3.8550 Bohr (=   2.0400 Ang.)
 Radius for H  used is    2.4944 Bohr (=   1.3200 Ang.)
Calculating surface                               ...        done! (  0.0s)
GEPOL surface points                              ...         2105
GEPOL Volume                                      ...    2796.2490
GEPOL Surface-area                                ...    1350.0295
Calculating surface distance matrix               ...        done! (  0.0s)
Performing Cholesky decomposition & store         ...        done! (  0.1s)
Overall time for CPCM initialization              ...                 0.2s
--------------
SCF ITERATIONS
--------------
ITER       Energy         Delta-E        Max-DP      RMS-DP      [F,P]     Damp
               ***  Starting incremental Fock matrix formation  ***
  0  -2351.5548342502   0.000000000000135.60383526  0.27552997  0.2010422 0.7000
  1  -2351.5396826074   0.01515164280149.48983989  0.11379874  0.1747270 0.7000
                               ***Turning on DIIS***
  2  -2351.9374824153  -0.39779980790173.97152876  0.16444554  0.0324129 0.0000
  3  -2352.3705696066  -0.43308719128053.68834409  0.11997537  0.0897633 0.0000
  4  -2352.5075015806  -0.13693197406813.80088650  0.02980797  0.1023663 0.7000
  5  -2352.5545145194  -0.04701293875740.88035899  0.08726260  0.0801391 0.0000
  6  -2352.6716649990  -0.117150479585 5.61325064  0.00956800  0.0154794 0.0000
  7  -2352.6866203811  -0.014955382183 8.78373072  0.01513962  0.0140343 0.0000
  8  -2352.6949707329  -0.008350351789 2.92502109  0.00464474  0.0036489 0.0000
  9  -2352.6969486519  -0.001977918949 1.60305314  0.00299876  0.0022872 0.0000
 10  -2352.6977322466  -0.000783594670 0.90457203  0.00251622  0.0011940 0.0000
 11  -2352.6980276716  -0.000295425077 0.59775929  0.00181996  0.0007281 0.0000
               *** Restarting incremental Fock matrix formation ***
                                   *** Resetting DIIS ***
 12  -2352.6980915793  -0.000063907705 0.71766576  0.00208766  0.0005986 0.0000
 13  -2352.6980766163   0.000014963053 0.49911092  0.00100203  0.0012253 0.0000
 14  -2352.6980984526  -0.000021836285 0.72211317  0.00134931  0.0002833 0.0000
 15  -2352.6981014381  -0.000002985576 0.97262149  0.00212700  0.0000714 0.0000
 16  -2352.6981019115  -0.000000473388 0.26864587  0.00062513  0.0000622 0.0000
 17  -2352.6981021103  -0.000000198789 0.51586987  0.00168541  0.0000316 0.0000
 18  -2352.6981022752  -0.000000164860 0.73546573  0.00120475  0.0000197 0.0000
 19  -2352.6981022586   0.000000016555 0.74413427  0.00138158  0.0000180 0.0000
 20  -2352.6981022416   0.000000016981 0.12190368  0.00050860  0.0000205 0.0000
 21  -2352.6981022276   0.000000014086 0.72536751  0.00127161  0.0000052 0.0000
 22  -2352.6981022471  -0.000000019504 0.22894584  0.00058418  0.0000019 0.0000
 23  -2352.6981022297   0.000000017375 0.05341514  0.00025586  0.0000025 0.0000
                            ***DIIS convergence achieved***

               *****************************************************
               *                     SUCCESS                       *
               *           SCF CONVERGED AFTER  24 CYCLES          *
               *****************************************************

Old exchange energy                            =    -42.870969620 Eh
New exchange energy                            =    -42.870945588 Eh
Exchange energy change after final integration =      0.000024031 Eh
Total energy after final integration           =  -2352.698078190 Eh
Final COS-X integration done in                =    12.934 sec

----------------
TOTAL SCF ENERGY
----------------

Total Energy       :        -2352.69807819 Eh          -64020.16943 eV

Components:
Nuclear Repulsion  :         3190.61304520 Eh           86820.99485 eV
Electronic Energy  :        -5543.31112339 Eh         -150841.16428 eV
One Electron Energy:        -9571.53168448 Eh         -260454.61839 eV
Two Electron Energy:         4028.22056109 Eh          109613.45411 eV
Max COSX asymmetry :            0.00003539 Eh               0.00096 eV
CPCM Dielectric    :           -0.06519488 Eh              -1.77404 eV

Virial components:
Potential Energy   :        -4695.55511422 Eh         -127772.55049 eV
Kinetic Energy     :         2342.85703603 Eh           63752.38106 eV
Virial Ratio       :            2.00420045


DFT components:
N(Alpha)           :      108.000061703428 electrons
N(Beta)            :      105.000066134891 electrons
N(Total)           :      213.000127838319 electrons
E(X)               :     -170.624033186035 Eh       
E(C)               :       -9.019844508779 Eh       
E(XC)              :     -179.643877694814 Eh       
DFET-embed. en.    :        0.000000000000 Eh       
CPCM Solvation Model Properties:
Surface-charge          :           -0.03285294
Charge-correction       :           -0.00053965 Eh              -0.01468 eV
Free-energy (cav+disp)  :  This term is not implemented in the current solvation scheme

---------------
SCF CONVERGENCE
---------------

  Last Energy change         ...    8.4124e-09  Tolerance :   1.0000e-08
  Last MAX-Density change    ...    0.0000e+00  Tolerance :   1.0000e-07
  Last RMS-Density change    ...    0.0000e+00  Tolerance :   5.0000e-09
  Last DIIS Error            ...    8.5824e-07  Tolerance :   5.0000e-07

             **** THE GBW FILE WAS UPDATED (picolinate_pople.gbw) ****
             **** DENSITY picolinate_pople.scfp WAS UPDATED ****
             **** ENERGY FILE WAS UPDATED (picolinate_pople.en.tmp) ****
----------------------
UHF SPIN CONTAMINATION
----------------------

Warning: in a DFT calculation there is little theoretical justification to 
         calculate <S**2> as in Hartree-Fock theory. We will do it anyways
         but you should keep in mind that the values have only limited relevance

Expectation value of <S**2>     :     3.769919
Ideal value S*(S+1) for S=1.5   :     3.750000
Deviation                       :     0.019919

             **** THE GBW FILE WAS UPDATED (picolinate_pople.gbw) ****
             **** DENSITY picolinate_pople.scfp WAS UPDATED ****
----------------
ORBITAL ENERGIES
----------------
                 SPIN UP ORBITALS
  NO   OCC          E(Eh)            E(eV) 
   0   1.0000    -215.793605     -5872.0425 
   1   1.0000     -24.815807      -675.2724 
   2   1.0000     -21.105379      -574.3066 
   3   1.0000     -21.104892      -574.2933 
   4   1.0000     -21.104538      -574.2837 
   5   1.0000     -19.158372      -521.3258 
   6   1.0000     -19.157955      -521.3145 
   7   1.0000     -19.157840      -521.3113 
   8   1.0000     -19.141922      -520.8782 
   9   1.0000     -19.141630      -520.8702 
  10   1.0000     -19.141081      -520.8553 
  11   1.0000     -14.393812      -391.6755 
  12   1.0000     -14.392909      -391.6510 
  13   1.0000     -14.392311      -391.6347 
  14   1.0000     -10.320283      -280.8292 
  15   1.0000     -10.320053      -280.8229 
  16   1.0000     -10.319602      -280.8106 
  17   1.0000     -10.255679      -279.0712 
  18   1.0000     -10.255345      -279.0621 
  19   1.0000     -10.255067      -279.0545 
  20   1.0000     -10.251963      -278.9701 
  21   1.0000     -10.251170      -278.9485 
  22   1.0000     -10.250516      -278.9307 
  23   1.0000     -10.225758      -278.2570 
  24   1.0000     -10.225608      -278.2529 
  25   1.0000     -10.225335      -278.2455 
  26   1.0000     -10.217419      -278.0301 
  27   1.0000     -10.217392      -278.0294 
  28   1.0000     -10.217390      -278.0293 
  29   1.0000     -10.217329      -278.0276 
  30   1.0000     -10.217070      -278.0206 
  31   1.0000     -10.216663      -278.0095 
  32   1.0000      -2.998459       -81.5922 
  33   1.0000      -1.945905       -52.9508 
  34   1.0000      -1.945462       -52.9387 
  35   1.0000      -1.944987       -52.9258 
  36   1.0000      -1.089102       -29.6360 
  37   1.0000      -1.087134       -29.5824 
  38   1.0000      -1.086292       -29.5595 
  39   1.0000      -1.009232       -27.4626 
  40   1.0000      -1.004214       -27.3261 
  41   1.0000      -1.002693       -27.2847 
  42   1.0000      -0.989778       -26.9332 
  43   1.0000      -0.989034       -26.9130 
  44   1.0000      -0.988087       -26.8872 
  45   1.0000      -0.834030       -22.6951 
  46   1.0000      -0.833107       -22.6700 
  47   1.0000      -0.832679       -22.6583 
  48   1.0000      -0.803112       -21.8538 
  49   1.0000      -0.802663       -21.8416 
  50   1.0000      -0.801862       -21.8198 
  51   1.0000      -0.678318       -18.4580 
  52   1.0000      -0.677438       -18.4340 
  53   1.0000      -0.676521       -18.4091 
  54   1.0000      -0.662014       -18.0143 
  55   1.0000      -0.660880       -17.9835 
  56   1.0000      -0.660342       -17.9688 
  57   1.0000      -0.593525       -16.1506 
  58   1.0000      -0.589535       -16.0421 
  59   1.0000      -0.588922       -16.0254 
  60   1.0000      -0.554366       -15.0851 
  61   1.0000      -0.536152       -14.5894 
  62   1.0000      -0.532840       -14.4993 
  63   1.0000      -0.522340       -14.2136 
  64   1.0000      -0.522075       -14.2064 
  65   1.0000      -0.518581       -14.1113 
  66   1.0000      -0.499625       -13.5955 
  67   1.0000      -0.498849       -13.5744 
  68   1.0000      -0.495079       -13.4718 
  69   1.0000      -0.478427       -13.0187 
  70   1.0000      -0.476118       -12.9558 
  71   1.0000      -0.471720       -12.8362 
  72   1.0000      -0.469475       -12.7751 
  73   1.0000      -0.466030       -12.6813 
  74   1.0000      -0.462460       -12.5842 
  75   1.0000      -0.456401       -12.4193 
  76   1.0000      -0.456129       -12.4119 
  77   1.0000      -0.453196       -12.3321 
  78   1.0000      -0.450638       -12.2625 
  79   1.0000      -0.437377       -11.9016 
  80   1.0000      -0.434207       -11.8154 
  81   1.0000      -0.426510       -11.6059 
  82   1.0000      -0.421132       -11.4596 
  83   1.0000      -0.420272       -11.4362 
  84   1.0000      -0.401406       -10.9228 
  85   1.0000      -0.400162       -10.8890 
  86   1.0000      -0.398342       -10.8394 
  87   1.0000      -0.366598        -9.9756 
  88   1.0000      -0.359523        -9.7831 
  89   1.0000      -0.354104        -9.6357 
  90   1.0000      -0.350964        -9.5502 
  91   1.0000      -0.342295        -9.3143 
  92   1.0000      -0.338667        -9.2156 
  93   1.0000      -0.330219        -8.9857 
  94   1.0000      -0.322515        -8.7761 
  95   1.0000      -0.320394        -8.7184 
  96   1.0000      -0.317819        -8.6483 
  97   1.0000      -0.311119        -8.4660 
  98   1.0000      -0.306497        -8.3402 
  99   1.0000      -0.292630        -7.9629 
 100   1.0000      -0.291809        -7.9405 
 101   1.0000      -0.290169        -7.8959 
 102   1.0000      -0.289897        -7.8885 
 103   1.0000      -0.289125        -7.8675 
 104   1.0000      -0.284519        -7.7422 
 105   1.0000      -0.277646        -7.5551 
 106   1.0000      -0.269900        -7.3444 
 107   1.0000      -0.259105        -7.0506 
 108   0.0000      -0.075974        -2.0674 
 109   0.0000      -0.075698        -2.0599 
 110   0.0000      -0.074816        -2.0359 
 111   0.0000      -0.054060        -1.4710 
 112   0.0000      -0.052564        -1.4303 
 113   0.0000      -0.049802        -1.3552 
 114   0.0000      -0.047481        -1.2920 
 115   0.0000      -0.044836        -1.2200 
 116   0.0000      -0.008133        -0.2213 
 117   0.0000       0.004114         0.1120 
 118   0.0000       0.006422         0.1748 
 119   0.0000       0.013363         0.3636 
 120   0.0000       0.018960         0.5159 
 121   0.0000       0.025568         0.6957 
 122   0.0000       0.026833         0.7302 
 123   0.0000       0.032852         0.8939 
 124   0.0000       0.033996         0.9251 
 125   0.0000       0.036908         1.0043 
 126   0.0000       0.038409         1.0452 
 127   0.0000       0.040470         1.1012 
 128   0.0000       0.041483         1.1288 
 129   0.0000       0.042334         1.1520 
 130   0.0000       0.050163         1.3650 
 131   0.0000       0.051638         1.4051 
 132   0.0000       0.054335         1.4785 
 133   0.0000       0.056283         1.5315 
 134   0.0000       0.059513         1.6194 
 135   0.0000       0.064780         1.7628 
 136   0.0000       0.071777         1.9532 
 137   0.0000       0.073983         2.0132 
 138   0.0000       0.076011         2.0684 
 139   0.0000       0.084025         2.2864 
 140   0.0000       0.084206         2.2914 
 141   0.0000       0.087488         2.3807 
 142   0.0000       0.093174         2.5354 
 143   0.0000       0.098689         2.6855 
 144   0.0000       0.102233         2.7819 
 145   0.0000       0.105248         2.8640 
 146   0.0000       0.107888         2.9358 
 147   0.0000       0.112281         3.0553 
 148   0.0000       0.113861         3.0983 
 149   0.0000       0.117582         3.1996 
 150   0.0000       0.121118         3.2958 
 151   0.0000       0.122803         3.3416 
 152   0.0000       0.123879         3.3709 
 153   0.0000       0.125405         3.4125 
 154   0.0000       0.126081         3.4308 
 155   0.0000       0.127218         3.4618 
 156   0.0000       0.129003         3.5103 
 157   0.0000       0.130150         3.5416 
 158   0.0000       0.132016         3.5923 
 159   0.0000       0.133800         3.6409 
 160   0.0000       0.137174         3.7327 
 161   0.0000       0.139004         3.7825 
 162   0.0000       0.140372         3.8197 
 163   0.0000       0.142274         3.8715 
 164   0.0000       0.143747         3.9115 
 165   0.0000       0.144814         3.9406 
 166   0.0000       0.149250         4.0613 
 167   0.0000       0.150423         4.0932 
 168   0.0000       0.153484         4.1765 
 169   0.0000       0.156023         4.2456 
 170   0.0000       0.158047         4.3007 
 171   0.0000       0.160866         4.3774 
 172   0.0000       0.165685         4.5085 
 173   0.0000       0.168218         4.5775 
 174   0.0000       0.170970         4.6523 
 175   0.0000       0.172562         4.6957 
 176   0.0000       0.175800         4.7838 
 177   0.0000       0.177125         4.8198 
 178   0.0000       0.183561         4.9949 
 179   0.0000       0.185373         5.0442 
 180   0.0000       0.188464         5.1284 
 181   0.0000       0.192366         5.2345 
 182   0.0000       0.192922         5.2497 
 183   0.0000       0.196650         5.3511 
 184   0.0000       0.197231         5.3669 
 185   0.0000       0.201869         5.4931 
 186   0.0000       0.204155         5.5553 
 187   0.0000       0.205706         5.5976 
 188   0.0000       0.210762         5.7351 
 189   0.0000       0.214305         5.8315 
 190   0.0000       0.214660         5.8412 
 191   0.0000       0.216169         5.8823 
 192   0.0000       0.218586         5.9480 
 193   0.0000       0.223207         6.0738 
 194   0.0000       0.226842         6.1727 
 195   0.0000       0.229942         6.2570 
 196   0.0000       0.231250         6.2926 
 197   0.0000       0.233811         6.3623 
 198   0.0000       0.240849         6.5538 
 199   0.0000       0.241469         6.5707 
 200   0.0000       0.244678         6.6580 
 201   0.0000       0.249055         6.7771 
 202   0.0000       0.251675         6.8484 
 203   0.0000       0.254163         6.9161 
 204   0.0000       0.258376         7.0308 
 205   0.0000       0.259870         7.0714 
 206   0.0000       0.260522         7.0892 
 207   0.0000       0.263044         7.1578 
 208   0.0000       0.266600         7.2546 
 209   0.0000       0.269998         7.3470 
 210   0.0000       0.272403         7.4125 
 211   0.0000       0.274560         7.4712 
 212   0.0000       0.277895         7.5619 
 213   0.0000       0.280666         7.6373 
[...]
  6:     33.54   0.000520    2.63  0.004837  ( 0.018657  0.065890 -0.012161)
  7:     34.41   0.000415    2.10  0.003766  ( 0.007955 -0.004986  0.060642)
  8:     38.81   0.002759   13.94  0.022185  (-0.009636  0.109198 -0.100836)
  9:     42.04   0.002942   14.87  0.021835  (-0.077278 -0.102562 -0.073102)
 10:     45.94   0.001279    6.46  0.008686  ( 0.088573 -0.001975 -0.028926)
 11:     62.86   0.002109   10.66  0.010469  (-0.092284  0.042561 -0.011862)
 12:    113.25   0.000175    0.89  0.000483  ( 0.018885 -0.011227  0.000033)
 13:    114.23   0.000094    0.48  0.000257  (-0.005391 -0.001116  0.015066)
 14:    121.53   0.000332    1.68  0.000853  ( 0.003835  0.028957  0.000349)
 15:    157.25   0.000018    0.09  0.000036  ( 0.001318  0.003841 -0.004463)
 16:    158.49   0.000542    2.74  0.001066  ( 0.023843  0.003961  0.021956)
 17:    170.29   0.000096    0.49  0.000176  (-0.005436 -0.000071  0.012100)
 18:    185.45   0.000772    3.90  0.001299  ( 0.035862 -0.003642 -0.000030)
 19:    198.40   0.000211    1.07  0.000333  ( 0.002688  0.013723 -0.011706)
 20:    204.03   0.000491    2.48  0.000752  (-0.009875  0.021038 -0.014547)
 21:    207.62   0.000423    2.14  0.000636  (-0.004026 -0.023162 -0.009128)
 22:    224.91   0.000141    0.71  0.000196  ( 0.009696  0.001942  0.009905)
 23:    231.90   0.000117    0.59  0.000158  (-0.012528 -0.001035 -0.000284)
 24:    265.11   0.009542   48.22  0.011232  ( 0.077075 -0.071608 -0.012776)
 25:    290.40   0.005031   25.43  0.005407  ( 0.023556  0.069586 -0.003077)
 26:    293.80   0.003434   17.36  0.003648  (-0.014476 -0.057973  0.008795)
 27:    351.94   0.007000   35.37  0.006207  ( 0.044055 -0.060675 -0.024177)
 28:    374.29   0.021278  107.53  0.017740  ( 0.021264  0.126909 -0.034384)
 29:    384.21   0.019356   97.82  0.015722  (-0.107540 -0.008549 -0.063905)
 30:    428.16   0.000409    2.07  0.000298  (-0.013991  0.003410 -0.009526)
 31:    431.38   0.000644    3.25  0.000466  (-0.014664 -0.015818  0.000594)
 32:    431.97   0.001649    8.33  0.001191  ( 0.021432 -0.026720 -0.004247)
 33:    449.18   0.008316   42.03  0.005778  ( 0.041969  0.060639 -0.018415)
 34:    454.03   0.013482   68.13  0.009266  (-0.056217  0.002569 -0.078097)
 35:    459.76   0.005904   29.83  0.004007  (-0.029809 -0.040457  0.038494)
 36:    464.73   0.007528   38.04  0.005055  ( 0.032556  0.010357  0.062352)
 37:    466.58   0.023132  116.90  0.015472  (-0.088279  0.014519 -0.086415)
 38:    467.50   0.014417   72.86  0.009623  (-0.057270 -0.079520  0.004488)
 39:    539.57   0.000009    0.04  0.000005  ( 0.001227  0.001535  0.001128)
 40:    541.46   0.000225    1.14  0.000130  (-0.004590 -0.009871  0.003348)
 41:    543.53   0.000224    1.13  0.000128  ( 0.002808 -0.004558 -0.009990)
 42:    662.26   0.000593    3.00  0.000279  ( 0.014910 -0.005730 -0.004924)
 43:    663.23   0.004529   22.89  0.002131  (-0.040083 -0.022078  0.006058)
 44:    665.12   0.009960   50.33  0.004673  ( 0.024718 -0.063726  0.000989)
 45:    697.10   0.010801   54.59  0.004835  (-0.040503  0.000396  0.056521)
 46:    697.82   0.015489   78.28  0.006927  (-0.064708  0.002816 -0.052267)
 47:    702.48   0.017249   87.17  0.007662  (-0.009575 -0.086957  0.003036)
 48:    714.98   0.003032   15.32  0.001323  ( 0.013274 -0.033857  0.000893)
 49:    718.10   0.009053   45.75  0.003934  (-0.057830 -0.013037 -0.020495)
 50:    720.07   0.019487   98.48  0.008445  (-0.033456  0.006363  0.085355)
 51:    770.54   0.011874   60.01  0.004809  ( 0.047670  0.005012  0.050113)
 52:    771.11   0.010813   54.65  0.004376  ( 0.047497  0.005989 -0.045653)
 53:    773.08   0.012473   63.03  0.005035  ( 0.005055 -0.070775  0.000103)
 54:    829.82   0.001135    5.73  0.000427  (-0.012402 -0.016404  0.001947)
 55:    830.59   0.000947    4.79  0.000356  ( 0.006191 -0.005748  0.016869)
 56:    832.60   0.001039    5.25  0.000390  ( 0.012361 -0.013270 -0.007786)
 57:    851.51   0.004156   21.00  0.001523  ( 0.037124 -0.004743 -0.011059)
 58:    854.66   0.035130  177.53  0.012827  ( 0.029218  0.013450  0.108593)
 59:    856.92   0.018426   93.12  0.006710  (-0.063380 -0.028482  0.043382)
 60:    925.66   0.000109    0.55  0.000037  (-0.001940 -0.000937 -0.005680)
 61:    926.52   0.000051    0.26  0.000017  (-0.003183 -0.001611  0.002077)
 62:    928.80   0.000030    0.15  0.000010  (-0.000880  0.002989  0.000473)
 63:    997.64   0.000123    0.62  0.000039  (-0.003314 -0.002007 -0.004857)
 64:   1000.42   0.000188    0.95  0.000059  (-0.003380 -0.006149  0.003061)
 65:   1004.73   0.000208    1.05  0.000065  (-0.005128  0.005659  0.002518)
 66:   1032.80   0.000042    0.21  0.000013  (-0.000543 -0.001937 -0.002958)
 67:   1034.21   0.000018    0.09  0.000005  (-0.001997 -0.000924  0.000720)
 68:   1036.03   0.000006    0.03  0.000002  (-0.000799  0.001143 -0.000027)
 69:   1043.44   0.007422   37.51  0.002220  (-0.023553 -0.040624  0.003820)
 70:   1044.13   0.008538   43.15  0.002552  ( 0.040524 -0.029357 -0.006900)
 71:   1045.32   0.003470   17.53  0.001036  (-0.007126  0.031281 -0.002551)
 72:   1067.38   0.011733   59.29  0.003430  (-0.056943  0.013650 -0.001197)
 73:   1068.45   0.006009   30.37  0.001755  (-0.011844 -0.039999  0.003865)
 74:   1073.54   0.008038   40.62  0.002337  ( 0.013462 -0.046282 -0.003646)
 75:   1115.43   0.005270   26.63  0.001474  ( 0.019711 -0.032685 -0.004174)
 76:   1116.61   0.003947   19.95  0.001103  ( 0.023785  0.021022 -0.009770)
 77:   1118.01   0.002576   13.02  0.000719  (-0.009312  0.025068  0.001985)
 78:   1169.35   0.001175    5.94  0.000314  (-0.004808 -0.007765 -0.015171)
 79:   1171.85   0.001176    5.94  0.000313  ( 0.014673  0.005608 -0.008148)
 80:   1172.43   0.001559    7.88  0.000415  (-0.004584  0.007694 -0.018293)
 81:   1180.43   0.015321   77.43  0.004050  ( 0.022787 -0.053227  0.026418)
 82:   1181.38   0.020982  106.03  0.005542  (-0.062321 -0.025814 -0.031499)
 83:   1184.26   0.009269   46.84  0.002442  ( 0.002676  0.047736 -0.012508)
 84:   1297.87   0.008260   41.74  0.001986  (-0.007238 -0.043297  0.007683)
 85:   1300.22   0.018348   92.72  0.004404  ( 0.050463 -0.027519 -0.033164)
 86:   1302.81   0.024716  124.90  0.005920  (-0.038300  0.066175  0.008608)
 87:   1306.43   0.096853  489.46  0.023135  ( 0.145587 -0.036097 -0.025226)
 88:   1316.30   0.109003  550.86  0.025842  (-0.004488  0.160650 -0.003642)
 89:   1325.30   0.009538   48.20  0.002246  ( 0.044208 -0.005385 -0.016203)
 90:   1356.83   0.066693  337.04  0.015339  (-0.116265  0.042668 -0.000954)
 91:   1358.02   0.117105  591.80  0.026910  ( 0.002599 -0.163966  0.004280)
 92:   1366.88   0.014756   74.57  0.003369  (-0.053878 -0.008655  0.019777)
 93:   1473.25   0.004641   23.46  0.000983  (-0.020189  0.013125 -0.020081)
 94:   1474.92   0.000558    2.82  0.000118  ( 0.006903  0.003874  0.007450)
 95:   1476.00   0.006144   31.05  0.001299  ( 0.017838  0.031234  0.002297)
 96:   1503.07   0.007476   37.78  0.001552  ( 0.013486 -0.017727  0.032495)
 97:   1503.78   0.012471   63.02  0.002588  (-0.030450 -0.006931 -0.040159)
 98:   1508.47   0.008295   41.92  0.001716  (-0.026083 -0.030951  0.008817)
 99:   1611.43   0.005412   27.35  0.001048  ( 0.017291  0.003753  0.027112)
100:   1612.15   0.003444   17.41  0.000667  (-0.012743  0.004205 -0.022061)
101:   1613.11   0.004772   24.12  0.000923  ( 0.018905  0.022627 -0.007340)
102:   1642.75   0.043503  219.84  0.008264  (-0.052925  0.032109 -0.066572)
103:   1643.65   0.031401  158.69  0.005962  (-0.047203 -0.060199 -0.010477)
104:   1644.71   0.017511   88.49  0.003323  ( 0.027132  0.049852 -0.010059)
105:   1682.61   0.196109  991.05  0.036371  (-0.087512 -0.133385  0.104504)
106:   1686.08   0.415774  2101.15  0.076952  (-0.156035 -0.030035 -0.227384)
107:   1701.01   0.029838  150.79  0.005474  (-0.060230 -0.032181  0.028472)
108:   3211.44   0.000539    2.73  0.000052  (-0.004582  0.005542 -0.000841)
109:   3212.88   0.000500    2.53  0.000049  ( 0.001459 -0.006805 -0.000362)
110:   3213.10   0.000535    2.70  0.000052  (-0.006323 -0.003463  0.000039)
111:   3224.17   0.000095    0.48  0.000009  (-0.001405  0.002656  0.000427)
112:   3224.81   0.000163    0.82  0.000016  ( 0.003340  0.002063 -0.000603)
113:   3226.24   0.000045    0.23  0.000004  (-0.001665  0.000788  0.000992)
114:   3233.59   0.000251    1.27  0.000024  (-0.003134  0.003541 -0.001348)
115:   3233.99   0.000315    1.59  0.000030  (-0.004774 -0.002527 -0.001108)
116:   3235.52   0.000112    0.57  0.000011  (-0.001151 -0.003077  0.000055)
117:   3235.91   0.000568    2.87  0.000055  ( 0.002549 -0.005326 -0.004465)
118:   3236.51   0.000396    2.00  0.000038  (-0.002941 -0.002616  0.004767)
119:   3238.68   0.000732    3.70  0.000071  (-0.006613  0.004034  0.003251)

* The epsilon (eps) is given for a Dirac delta lineshape.
** The dipole moment derivative (T) already includes vibrational overlap.

The first frequency considered to be a vibration is 6
The total number of vibrations considered is 114


--------------------------
THERMOCHEMISTRY AT 298.15K
--------------------------

Temperature         ... 298.15 K
Pressure            ... 1.00 atm
Total Mass          ... 418.31 AMU

Throughout the following assumptions are being made:
  (1) The electronic state is orbitally nondegenerate
      but the spin degeneracy is treated
  (2) There are no thermally accessible electronically excited states
  (3) Hindered rotations indicated by low frequency modes are not
      treated as such but are treated as vibrations and this may
      cause some error
  (4) All equations used are the standard statistical mechanics
      equations for an ideal gas
  (5) All vibrations are strictly harmonic

freq.      33.54  E(vib)   ...       0.55 
freq.      34.41  E(vib)   ...       0.54 
freq.      38.81  E(vib)   ...       0.54 
freq.      42.04  E(vib)   ...       0.53 
freq.      45.94  E(vib)   ...       0.53 
freq.      62.86  E(vib)   ...       0.51 
freq.     113.25  E(vib)   ...       0.45 
freq.     114.23  E(vib)   ...       0.44 
freq.     121.53  E(vib)   ...       0.44 
freq.     157.25  E(vib)   ...       0.40 
freq.     158.49  E(vib)   ...       0.39 
freq.     170.29  E(vib)   ...       0.38 
freq.     185.45  E(vib)   ...       0.37 
freq.     198.40  E(vib)   ...       0.35 
freq.     204.03  E(vib)   ...       0.35 
freq.     207.62  E(vib)   ...       0.34 
freq.     224.91  E(vib)   ...       0.33 
freq.     231.90  E(vib)   ...       0.32 
freq.     265.11  E(vib)   ...       0.29 
freq.     290.40  E(vib)   ...       0.27 
freq.     293.80  E(vib)   ...       0.27 
freq.     351.94  E(vib)   ...       0.23 
freq.     374.29  E(vib)   ...       0.21 
freq.     384.21  E(vib)   ...       0.20 
freq.     428.16  E(vib)   ...       0.18 
freq.     431.38  E(vib)   ...       0.18 
freq.     431.97  E(vib)   ...       0.18 
freq.     449.18  E(vib)   ...       0.17 
freq.     454.03  E(vib)   ...       0.16 
freq.     459.76  E(vib)   ...       0.16 
freq.     464.73  E(vib)   ...       0.16 
freq.     466.58  E(vib)   ...       0.16 
freq.     467.50  E(vib)   ...       0.16 
freq.     539.57  E(vib)   ...       0.12 
freq.     541.46  E(vib)   ...       0.12 
freq.     543.53  E(vib)   ...       0.12 
freq.     662.26  E(vib)   ...       0.08 
freq.     663.23  E(vib)   ...       0.08 
freq.     665.12  E(vib)   ...       0.08 
freq.     697.10  E(vib)   ...       0.07 
freq.     697.82  E(vib)   ...       0.07 
freq.     702.48  E(vib)   ...       0.07 
freq.     714.98  E(vib)   ...       0.07 
freq.     718.10  E(vib)   ...       0.07 
freq.     720.07  E(vib)   ...       0.07 
freq.     770.54  E(vib)   ...       0.05 
freq.     771.11  E(vib)   ...       0.05 
freq.     773.08  E(vib)   ...       0.05 
freq.     829.82  E(vib)   ...       0.04 
freq.     830.59  E(vib)   ...       0.04 
freq.     832.60  E(vib)   ...       0.04 
freq.     851.51  E(vib)   ...       0.04 
freq.     854.66  E(vib)   ...       0.04 
freq.     856.92  E(vib)   ...       0.04 
freq.     925.66  E(vib)   ...       0.03 
freq.     926.52  E(vib)   ...       0.03 
freq.     928.80  E(vib)   ...       0.03 
freq.     997.64  E(vib)   ...       0.02 
freq.    1000.42  E(vib)   ...       0.02 
freq.    1004.73  E(vib)   ...       0.02 
freq.    1032.80  E(vib)   ...       0.02 
freq.    1034.21  E(vib)   ...       0.02 
freq.    1036.03  E(vib)   ...       0.02 
freq.    1043.44  E(vib)   ...       0.02 
freq.    1044.13  E(vib)   ...       0.02 
freq.    1045.32  E(vib)   ...       0.02 
freq.    1067.38  E(vib)   ...       0.02 
freq.    1068.45  E(vib)   ...       0.02 
freq.    1073.54  E(vib)   ...       0.02 
freq.    1115.43  E(vib)   ...       0.01 
freq.    1116.61  E(vib)   ...       0.01 
freq.    1118.01  E(vib)   ...       0.01 
freq.    1169.35  E(vib)   ...       0.01 
freq.    1171.85  E(vib)   ...       0.01 
freq.    1172.43  E(vib)   ...       0.01 
freq.    1180.43  E(vib)   ...       0.01 
freq.    1181.38  E(vib)   ...       0.01 
freq.    1184.26  E(vib)   ...       0.01 
freq.    1297.87  E(vib)   ...       0.01 
freq.    1300.22  E(vib)   ...       0.01 
freq.    1302.81  E(vib)   ...       0.01 
freq.    1306.43  E(vib)   ...       0.01 
freq.    1316.30  E(vib)   ...       0.01 
freq.    1325.30  E(vib)   ...       0.01 
freq.    1356.83  E(vib)   ...       0.01 
freq.    1358.02  E(vib)   ...       0.01 
freq.    1366.88  E(vib)   ...       0.01 
freq.    1473.25  E(vib)   ...       0.00 
freq.    1474.92  E(vib)   ...       0.00 
freq.    1476.00  E(vib)   ...       0.00 
freq.    1503.07  E(vib)   ...       0.00 
freq.    1503.78  E(vib)   ...       0.00 
freq.    1508.47  E(vib)   ...       0.00 
freq.    1611.43  E(vib)   ...       0.00 
freq.    1612.15  E(vib)   ...       0.00 
freq.    1613.11  E(vib)   ...       0.00 
freq.    1642.75  E(vib)   ...       0.00 
freq.    1643.65  E(vib)   ...       0.00 
freq.    1644.71  E(vib)   ...       0.00 
freq.    1682.61  E(vib)   ...       0.00 
freq.    1686.08  E(vib)   ...       0.00 
freq.    1701.01  E(vib)   ...       0.00 
freq.    3211.44  E(vib)   ...       0.00 
freq.    3212.88  E(vib)   ...       0.00 
freq.    3213.10  E(vib)   ...       0.00 
freq.    3224.17  E(vib)   ...       0.00 
freq.    3224.81  E(vib)   ...       0.00 
freq.    3226.24  E(vib)   ...       0.00 
freq.    3233.59  E(vib)   ...       0.00 
freq.    3233.99  E(vib)   ...       0.00 
freq.    3235.52  E(vib)   ...       0.00 
freq.    3235.91  E(vib)   ...       0.00 
freq.    3236.51  E(vib)   ...       0.00 
freq.    3238.68  E(vib)   ...       0.00 

------------
INNER ENERGY
------------

The inner energy is: U= E(el) + E(ZPE) + E(vib) + E(rot) + E(trans)
    E(el)   - is the total energy from the electronic structure calculation
              = E(kin-el) + E(nuc-el) + E(el-el) + E(nuc-nuc)
    E(ZPE)  - the the zero temperature vibrational energy from the frequency calculation
    E(vib)  - the the finite temperature correction to E(ZPE) due to population
              of excited vibrational states
    E(rot)  - is the rotational thermal energy
    E(trans)- is the translational thermal energy

Summary of contributions to the inner energy U:
Electronic energy                ...  -2352.70332475 Eh
Zero point energy                ...      0.28173615 Eh     176.79 kcal/mol
Thermal vibrational correction   ...      0.02023146 Eh      12.70 kcal/mol
Thermal rotational correction    ...      0.00141627 Eh       0.89 kcal/mol
Thermal translational correction ...      0.00141627 Eh       0.89 kcal/mol
-----------------------------------------------------------------------
Total thermal energy                  -2352.39852460 Eh


Summary of corrections to the electronic energy:
(perhaps to be used in another calculation)
Total thermal correction                  0.02306400 Eh      14.47 kcal/mol
Non-thermal (ZPE) correction              0.28173615 Eh     176.79 kcal/mol
-----------------------------------------------------------------------
Total correction                          0.30480015 Eh     191.26 kcal/mol


--------
ENTHALPY
--------

The enthalpy is H = U + kB*T
                kB is Boltzmann's constant
Total free energy                 ...  -2352.39852460 Eh 
Thermal Enthalpy correction       ...      0.00094421 Eh       0.59 kcal/mol
-----------------------------------------------------------------------
Total Enthalpy                    ...  -2352.39758039 Eh


Note: Only C1 symmetry has been detected, increase convergence thresholds 
      if your molecule has a higher symmetry. Symmetry factor of 1.0 is   
      used for the rotational entropy correction. 
 

Note: Rotational entropy computed according to Herzberg 
Infrared and Raman Spectra, Chapter V,1, Van Nostrand Reinhold, 1945 
Point Group:  C1, Symmetry Number:   1  
Rotational constants in cm-1:     0.007201     0.005754     0.004451 

Vibrational entropy computed according to the QRRHO of S. Grimme
Chem.Eur.J. 2012 18 9955


-------
ENTROPY
-------

The entropy contributions are T*S = T*(S(el)+S(vib)+S(rot)+S(trans))
     S(el)   - electronic entropy
     S(vib)  - vibrational entropy
     S(rot)  - rotational entropy
     S(trans)- translational entropy
The entropies will be listed as multiplied by the temperature to get
units of energy

Electronic entropy                ...      0.00130891 Eh      0.82 kcal/mol
Vibrational entropy               ...      0.03561095 Eh     22.35 kcal/mol
Rotational entropy                ...      0.01683109 Eh     10.56 kcal/mol
Translational entropy             ...      0.02089800 Eh     13.11 kcal/mol
-----------------------------------------------------------------------
Final entropy term                ...      0.07464895 Eh     46.84 kcal/mol

In case the symmetry of your molecule has not been determined correctly
or in case you have a reason to use a different symmetry number we print 
out the resulting rotational entropy values for sn=1,12 :
 --------------------------------------------------------
|  sn= 1 | S(rot)=       0.01683109 Eh     10.56 kcal/mol|
|  sn= 2 | S(rot)=       0.01617664 Eh     10.15 kcal/mol|
|  sn= 3 | S(rot)=       0.01579380 Eh      9.91 kcal/mol|
|  sn= 4 | S(rot)=       0.01552218 Eh      9.74 kcal/mol|
|  sn= 5 | S(rot)=       0.01531149 Eh      9.61 kcal/mol|
|  sn= 6 | S(rot)=       0.01513935 Eh      9.50 kcal/mol|
|  sn= 7 | S(rot)=       0.01499380 Eh      9.41 kcal/mol|
|  sn= 8 | S(rot)=       0.01486772 Eh      9.33 kcal/mol|
|  sn= 9 | S(rot)=       0.01475652 Eh      9.26 kcal/mol|
|  sn=10 | S(rot)=       0.01465704 Eh      9.20 kcal/mol|
|  sn=11 | S(rot)=       0.01456705 Eh      9.14 kcal/mol|
|  sn=12 | S(rot)=       0.01448489 Eh      9.09 kcal/mol|
 --------------------------------------------------------


-------------------
GIBBS FREE ENERGY
-------------------

The Gibbs free energy is G = H - T*S

Total enthalpy                    ...  -2352.39758039 Eh 
Total entropy correction          ...     -0.07464895 Eh    -46.84 kcal/mol
-----------------------------------------------------------------------
Final Gibbs free energy         ...  -2352.47222934 Eh

For completeness - the Gibbs free energy minus the electronic energy
G-E(el)                           ...      0.23109541 Eh    145.01 kcal/mol


Timings for individual modules:

Sum of individual times         ...     5236.501 sec (=  87.275 min)
GTO integral calculation        ...       11.926 sec (=   0.199 min)   0.2 %
SCF iterations                  ...     1740.630 sec (=  29.010 min)  33.2 %
SCF Gradient evaluation         ...      400.710 sec (=   6.679 min)   7.7 %
Geometry relaxation             ...        0.834 sec (=   0.014 min)   0.0 %
Analytical frequency calculation...     3082.400 sec (=  51.373 min)  58.9 %
                             ****ORCA TERMINATED NORMALLY****
TOTAL RUN TIME: 0 days 1 hours 27 minutes 20 seconds 88 msec
