
                                 *****************
                                 * O   R   C   A *
                                 *****************

                                            #,                                       
                                            ###                                      
                                            ####                                     
                                            #####                                    
                                            ######                                   
                                           ########,                                 
                                     ,,################,,,,,                         
                               ,,#################################,,                 
                          ,,##########################################,,             
                       ,#########################################, ''#####,          
                    ,#############################################,,   '####,        
                  ,##################################################,,,,####,       
                ,###########''''           ''''###############################       
              ,#####''   ,,,,##########,,,,          '''####'''          '####       
            ,##' ,,,,###########################,,,                        '##       
           ' ,,###''''                  '''############,,,                           
         ,,##''                                '''############,,,,        ,,,,,,###''
      ,#''                                            '''#######################'''  
     '                                                          ''''####''''         
             ,#######,   #######,   ,#######,      ##                                
            ,#'     '#,  ##    ##  ,#'     '#,    #''#        ######   ,####,        
            ##       ##  ##   ,#'  ##            #'  '#       #        #'  '#        
            ##       ##  #######   ##           ,######,      #####,   #    #        
            '#,     ,#'  ##    ##  '#,     ,#' ,#      #,         ##   #,  ,#        
             '#######'   ##     ##  '#######'  #'      '#     #####' # '####'        



                  #######################################################
                  #                        -***-                        #
                  #          Department of theory and spectroscopy      #
                  #    Directorship and core code : Frank Neese         #
                  #        Max Planck Institute fuer Kohlenforschung    #
                  #                Kaiser Wilhelm Platz 1               #
                  #                 D-45470 Muelheim/Ruhr               #
                  #                      Germany                        #
                  #                                                     #
                  #                  All rights reserved                #
                  #                        -***-                        #
                  #######################################################


                         Program Version 5.0.4 -  RELEASE  -


 With contributions from (in alphabetic order):
   Daniel Aravena         : Magnetic Suceptibility
   Michael Atanasov       : Ab Initio Ligand Field Theory (pilot matlab implementation)
   Alexander A. Auer      : GIAO ZORA, VPT2 properties, NMR spectrum
   Ute Becker             : Parallelization
   Giovanni Bistoni       : ED, misc. LED, open-shell LED, HFLD
   Martin Brehm           : Molecular dynamics
   Dmytro Bykov           : SCF Hessian
   Vijay G. Chilkuri      : MRCI spin determinant printing, contributions to CSF-ICE
   Dipayan Datta          : RHF DLPNO-CCSD density
   Achintya Kumar Dutta   : EOM-CC, STEOM-CC
   Dmitry Ganyushin       : Spin-Orbit,Spin-Spin,Magnetic field MRCI
   Miquel Garcia          : C-PCM and meta-GGA Hessian, CC/C-PCM, Gaussian charge scheme
   Yang Guo               : DLPNO-NEVPT2, F12-NEVPT2, CIM, IAO-localization
   Andreas Hansen         : Spin unrestricted coupled pair/coupled cluster methods
   Benjamin Helmich-Paris : MC-RPA, TRAH-SCF, COSX integrals
   Lee Huntington         : MR-EOM, pCC
   Robert Izsak           : Overlap fitted RIJCOSX, COSX-SCS-MP3, EOM
   Marcus Kettner         : VPT2
   Christian Kollmar      : KDIIS, OOCD, Brueckner-CCSD(T), CCSD density, CASPT2, CASPT2-K
   Simone Kossmann        : Meta GGA functionals, TD-DFT gradient, OOMP2, MP2 Hessian
   Martin Krupicka        : Initial AUTO-CI
   Lucas Lang             : DCDCAS
   Marvin Lechner         : AUTO-CI (C++ implementation), FIC-MRCC
   Dagmar Lenk            : GEPOL surface, SMD
   Dimitrios Liakos       : Extrapolation schemes; Compound Job, initial MDCI parallelization
   Dimitrios Manganas     : Further ROCIS development; embedding schemes
   Dimitrios Pantazis     : SARC Basis sets
   Anastasios Papadopoulos: AUTO-CI, single reference methods and gradients
   Taras Petrenko         : DFT Hessian,TD-DFT gradient, ASA, ECA, R-Raman, ABS, FL, XAS/XES, NRVS
   Peter Pinski           : DLPNO-MP2, DLPNO-MP2 Gradient
   Christoph Reimann      : Effective Core Potentials
   Marius Retegan         : Local ZFS, SOC
   Christoph Riplinger    : Optimizer, TS searches, QM/MM, DLPNO-CCSD(T), (RO)-DLPNO pert. Triples
   Tobias Risthaus        : Range-separated hybrids, TD-DFT gradient, RPA, STAB
   Michael Roemelt        : Original ROCIS implementation
   Masaaki Saitow         : Open-shell DLPNO-CCSD energy and density
   Barbara Sandhoefer     : DKH picture change effects
   Avijit Sen             : IP-ROCIS
   Kantharuban Sivalingam : CASSCF convergence, NEVPT2, FIC-MRCI
   Bernardo de Souza      : ESD, SOC TD-DFT
   Georgi Stoychev        : AutoAux, RI-MP2 NMR, DLPNO-MP2 response
   Willem Van den Heuvel  : Paramagnetic NMR
   Boris Wezisla          : Elementary symmetry handling
   Frank Wennmohs         : Technical directorship


 We gratefully acknowledge several colleagues who have allowed us to
 interface, adapt or use parts of their codes:
   Stefan Grimme, W. Hujo, H. Kruse, P. Pracht,  : VdW corrections, initial TS optimization,
                  C. Bannwarth, S. Ehlert          DFT functionals, gCP, sTDA/sTD-DF
   Ed Valeev, F. Pavosevic, A. Kumar             : LibInt (2-el integral package), F12 methods
   Garnet Chan, S. Sharma, J. Yang, R. Olivares  : DMRG
   Ulf Ekstrom                                   : XCFun DFT Library
   Mihaly Kallay                                 : mrcc  (arbitrary order and MRCC methods)
   Jiri Pittner, Ondrej Demel                    : Mk-CCSD
   Frank Weinhold                                : gennbo (NPA and NBO analysis)
   Christopher J. Cramer and Donald G. Truhlar   : smd solvation model
   Lars Goerigk                                  : TD-DFT with DH, B97 family of functionals
   V. Asgeirsson, H. Jonsson                     : NEB implementation
   FAccTs GmbH                                   : IRC, NEB, NEB-TS, DLPNO-Multilevel, CI-OPT
                                                   MM, QMMM, 2- and 3-layer-ONIOM, Crystal-QMMM,
                                                   LR-CPCM, SF, NACMEs, symmetry and pop. for TD-DFT,
                                                   nearIR, NL-DFT gradient (VV10), updates on ESD,
                                                   ML-optimized integration grids
   S Lehtola, MJT Oliveira, MAL Marques          : LibXC Library
   Liviu Ungur et al                             : ANISO software


 Your calculation uses the libint2 library for the computation of 2-el integrals
 For citations please refer to: http://libint.valeyev.net

 Your ORCA version has been built with support for libXC version: 5.1.0
 For citations please refer to: https://tddft.org/programs/libxc/

 This ORCA versions uses:
   CBLAS   interface :  Fast vector & matrix operations
   LAPACKE interface :  Fast linear algebra routines
   SCALAPACK package :  Parallel linear algebra routines
   Shared memory     :  Shared parallel matrices
   BLAS/LAPACK       :  OpenBLAS 0.3.15  USE64BITINT DYNAMIC_ARCH NO_AFFINITY Zen SINGLE_THREADED
        Core in use  :  Zen
   Copyright (c) 2011-2014, The OpenBLAS Project


Your calculation utilizes the atom-pairwise dispersion correction
with the zero-damping scheme (D30)
Cite in your paper:
S.Grimme, J.Antony, S.Ehrlich and H.Krieg, J.Chem.Phys., 132, (2010), 154104 
   

XCFun DFT library Copyright 2009-2010 Ulf Ekstrom and contributors.
See http://admol.org/xcfun for more information.
This is free software; see the source code for copying conditions.
There is ABSOLUTELY NO WARRANTY; not even for MERCHANTABILITY or FITNESS FOR A PARTICULAR PURPOSE.
For details see the documentation.
Scientific users of this library should cite U. Ekstrom, L. Visscher, R. Bast, A. J. Thorvaldsen and K. Ruud;
J.Chem.Theor.Comp. 2010, DOI: 10.1021/ct100117s
XCFun Version 0.99 

================================================================================

----- Orbital basis set information -----
Your calculation utilizes the basis: def2-TZVP
   F. Weigend and R. Ahlrichs, Phys. Chem. Chem. Phys. 7, 3297 (2005).

----- AuxJ basis set information -----
Your calculation utilizes the auxiliary basis: def2/J
   F. Weigend, Phys. Chem. Chem. Phys. 8, 1057 (2006).

================================================================================
                                        WARNINGS
                       Please study these warnings very carefully!
================================================================================


INFO   : the flag for use of the SHARK integral package has been found!

================================================================================
                                       INPUT FILE
================================================================================
NAME = k_8w_freq.inp
|  1> # avogadro generated ORCA file
|  2> # H16O8K | Frequencies | wB97X-D3/def2-TZVP
|  3> # 
|  4> ! Freq wB97X-D3 def2-TZVP CPCM TightSCF
|  5> 
|  6> %maxcore 1536
|  7> 
|  8> %pal
|  9>    nprocs 16
| 10> end
| 11> 
| 12> * xyz 1 1
| 13>    K      0.339476    0.574023    0.840875
| 14>    O      3.118771    0.519933    0.848693
| 15>    H      3.428022    1.409677    1.044339
| 16>    H      3.411034    0.354750   -0.053047
| 17>    O     -1.550400    2.411760   -0.107411
| 18>    H     -1.430808    2.411997   -1.061960
| 19>    H     -2.462946    2.136265    0.020570
| 20>    O      1.079210    4.519924   -0.924675
| 21>    H      0.296962    4.070548   -1.261115
| 22>    H      1.068837    4.341646    0.021268
| 23>    O     -0.876677   -1.584472   -0.464094
| 24>    H     -0.501308   -1.464588   -1.342056
| 25>    H     -0.565956   -2.450056   -0.183174
| 26>    O      3.023912    2.733330   -1.821262
| 27>    H      2.414772    3.414855   -1.473987
| 28>    H      3.595070    2.506336   -1.081496
| 29>    O      0.954716    2.899484    2.348771
| 30>    H      0.299678    3.569408    2.131201
| 31>    H      1.787626    3.258027    2.027323
| 32>    O      0.969051    0.818000   -1.916472
| 33>    H      1.711186    1.453391   -1.919377
| 34>    H      0.255056    1.273208   -2.371719
| 35>    O     -0.272245   -1.038544    3.057222
| 36>    H     -0.508694   -1.902622    2.706249
| 37>    H     -1.069141   -0.735751    3.502215
| 38> *
| 39> 
| 40> 
| 41> 
| 42>                          ****END OF INPUT****
================================================================================

                       ****************************
                       * Single Point Calculation *
                       ****************************

---------------------------------
CARTESIAN COORDINATES (ANGSTROEM)
---------------------------------
  K      0.339476    0.574023    0.840875
  O      3.118771    0.519933    0.848693
  H      3.428022    1.409677    1.044339
  H      3.411034    0.354750   -0.053047
  O     -1.550400    2.411760   -0.107411
  H     -1.430808    2.411997   -1.061960
  H     -2.462946    2.136265    0.020570
  O      1.079210    4.519924   -0.924675
  H      0.296962    4.070548   -1.261115
  H      1.068837    4.341646    0.021268
  O     -0.876677   -1.584472   -0.464094
  H     -0.501308   -1.464588   -1.342056
  H     -0.565956   -2.450056   -0.183174
  O      3.023912    2.733330   -1.821262
  H      2.414772    3.414855   -1.473987
  H      3.595070    2.506336   -1.081496
  O      0.954716    2.899484    2.348771
  H      0.299678    3.569408    2.131201
  H      1.787626    3.258027    2.027323
  O      0.969051    0.818000   -1.916472
  H      1.711186    1.453391   -1.919377
  H      0.255056    1.273208   -2.371719
  O     -0.272245   -1.038544    3.057222
  H     -0.508694   -1.902622    2.706249
  H     -1.069141   -0.735751    3.502215

----------------------------
CARTESIAN COORDINATES (A.U.)
----------------------------
  NO LB      ZA    FRAG     MASS         X           Y           Z
   0 K    19.0000    0    39.100    0.641517    1.084746    1.589023
   1 O     8.0000    0    15.999    5.893623    0.982531    1.603797
   2 H     1.0000    0     1.008    6.478023    2.663903    1.973515
   3 H     1.0000    0     1.008    6.445920    0.670380   -0.100244
   4 O     8.0000    0    15.999   -2.929831    4.557566   -0.202977
   5 H     1.0000    0     1.008   -2.703835    4.558014   -2.006814
   6 H     1.0000    0     1.008   -4.654293    4.036956    0.038872
   7 O     8.0000    0    15.999    2.039411    8.541419   -1.747383
   8 H     1.0000    0     1.008    0.561177    7.692221   -2.383162
   9 H     1.0000    0     1.008    2.019809    8.204522    0.040191
  10 O     8.0000    0    15.999   -1.656679   -2.994218   -0.877011
  11 H     1.0000    0     1.008   -0.947335   -2.767670   -2.536118
  12 H     1.0000    0     1.008   -1.069502   -4.629935   -0.346149
  13 O     8.0000    0    15.999    5.714366    5.165245   -3.441686
  14 H     1.0000    0     1.008    4.563258    6.453141   -2.785432
  15 H     1.0000    0     1.008    6.793698    4.736289   -2.043731
  16 O     8.0000    0    15.999    1.804152    5.479231    4.438534
  17 H     1.0000    0     1.008    0.566309    6.745204    4.027386
  18 H     1.0000    0     1.008    3.378124    6.156779    3.831085
  19 O     8.0000    0    15.999    1.831241    1.545796   -3.621607
  20 H     1.0000    0     1.008    3.233673    2.746511   -3.627097
  21 H     1.0000    0     1.008    0.481986    2.406014   -4.481899
  22 O     8.0000    0    15.999   -0.514468   -1.962564    5.777312
  23 H     1.0000    0     1.008   -0.961292   -3.595435    5.114069
  24 H     1.0000    0     1.008   -2.020384   -1.390368    6.618227

--------------------------------
INTERNAL COORDINATES (ANGSTROEM)
--------------------------------
 K      0   0   0     0.000000000000     0.00000000     0.00000000
 O      1   0   0     2.779832287432     0.00000000     0.00000000
 H      2   1   0     0.962059210160   107.69568716     0.00000000
 H      2   1   3     0.962204818247   107.72141019   247.70770179
 O      1   2   3     2.801455856219   133.48707181    39.91091141
 H      5   1   2     0.962011484357   104.60597089    65.15087634
 H      5   1   2     0.961777954365   114.02435927   178.67102168
 O      6   5   1     3.280608749741    93.08110187   277.27495055
 H      8   6   5     0.962830512853    20.59003913   212.57723206
 H      8   6   5     0.962651963932    85.05965129    12.36257392
 O      1   2   3     2.800191578338   114.86858215   161.45184422
 H     11   1   2     0.962336392880    99.19142764   300.32231375
 H     11   1   2     0.961612836487   114.66936507    51.17251052
 O      8   6   5     2.788844247750    96.22546048   113.74392435
 H     14   8   6     0.977817872024     5.68557017   197.39310521
 H     14   8   6     0.961769968213   108.54349380   251.41273170
 O     10   8   6     2.740460737156   158.82415918    45.07373175
 H     17  10   8     0.961878189856    57.97645269   240.55612570
 H     17  10   8     0.962091974633    58.94004485   103.91927650
 O     12  11   1     2.775268871241   119.86427483   351.73341564
 H     20  12  11     0.976982354053   159.71388900    73.17432501
 H     20  12  11     0.961380785276    95.39212779   259.68996184
 O      1   2   3     2.808339177475   101.79370348   246.05833280
 H     23   1   2     0.962143942669   106.33927686   259.46448476
 H     23   1   2     0.961636940697   111.40172480   146.36065180

---------------------------
INTERNAL COORDINATES (A.U.)
---------------------------
 K      0   0   0     0.000000000000     0.00000000     0.00000000
 O      1   0   0     5.253121721478     0.00000000     0.00000000
 H      2   1   0     1.818028431818   107.69568716     0.00000000
 H      2   1   3     1.818303591227   107.72141019   247.70770179
 O      1   2   3     5.293984344523   133.48707181    39.91091141
 H      5   1   2     1.817938243121   104.60597089    65.15087634
 H      5   1   2     1.817496935392   114.02435927   178.67102168
 O      6   5   1     6.199452089557    93.08110187   277.27495055
 H      8   6   5     1.819485982674    20.59003913   212.57723206
 H      8   6   5     1.819148574113    85.05965129    12.36257392
 O      1   2   3     5.291595205571   114.86858215   161.45184422
 H     11   1   2     1.818552231249    99.19142764   300.32231375
 H     11   1   2     1.817184907824   114.66936507    51.17251052
 O      8   6   5     5.270151858409    96.22546048   113.74392435
 H     14   8   6     1.847807986979     5.68557017   197.39310521
 H     14   8   6     1.817481843752   108.54349380   251.41273170
 O     10   8   6     5.178720273989   158.82415918    45.07373175
 H     17  10   8     1.817686353019    57.97645269   240.55612570
 H     17  10   8     1.818090347700    58.94004485   103.91927650
 O     12  11   1     5.244498114643   119.86427483   351.73341564
 H     20  12  11     1.846229086834   159.71388900    73.17432501
 H     20  12  11     1.816746394586    95.39212779   259.68996184
 O      1   2   3     5.306991936589   101.79370348   246.05833280
 H     23   1   2     1.818188553055   106.33927686   259.46448476
 H     23   1   2     1.817230458180   111.40172480   146.36065180

---------------------
BASIS SET INFORMATION
---------------------
There are 3 groups of distinct atoms

 Group   1 Type K   : 17s11p3d contracted to 6s4p3d pattern {842111/6311/111}
 Group   2 Type O   : 11s6p2d1f contracted to 5s3p2d1f pattern {62111/411/11/1}
 Group   3 Type H   : 5s1p contracted to 3s1p pattern {311/1}

Atom   0K    basis set group =>   1
Atom   1O    basis set group =>   2
Atom   2H    basis set group =>   3
Atom   3H    basis set group =>   3
Atom   4O    basis set group =>   2
Atom   5H    basis set group =>   3
Atom   6H    basis set group =>   3
Atom   7O    basis set group =>   2
Atom   8H    basis set group =>   3
Atom   9H    basis set group =>   3
Atom  10O    basis set group =>   2
Atom  11H    basis set group =>   3
Atom  12H    basis set group =>   3
Atom  13O    basis set group =>   2
Atom  14H    basis set group =>   3
Atom  15H    basis set group =>   3
Atom  16O    basis set group =>   2
Atom  17H    basis set group =>   3
Atom  18H    basis set group =>   3
Atom  19O    basis set group =>   2
Atom  20H    basis set group =>   3
Atom  21H    basis set group =>   3
Atom  22O    basis set group =>   2
Atom  23H    basis set group =>   3
Atom  24H    basis set group =>   3
---------------------------------
AUXILIARY/J BASIS SET INFORMATION
---------------------------------
There are 3 groups of distinct atoms

 Group   1 Type K   : 19s5p5d3f1g contracted to 8s4p4d1f1g pattern {121111111/2111/2111/3/1}
 Group   2 Type O   : 12s5p4d2f1g contracted to 6s4p3d1f1g pattern {711111/2111/211/2/1}
 Group   3 Type H   : 5s2p1d contracted to 3s1p1d pattern {311/2/1}

Atom   0K    basis set group =>   1
Atom   1O    basis set group =>   2
Atom   2H    basis set group =>   3
Atom   3H    basis set group =>   3
Atom   4O    basis set group =>   2
Atom   5H    basis set group =>   3
Atom   6H    basis set group =>   3
Atom   7O    basis set group =>   2
Atom   8H    basis set group =>   3
Atom   9H    basis set group =>   3
Atom  10O    basis set group =>   2
Atom  11H    basis set group =>   3
Atom  12H    basis set group =>   3
Atom  13O    basis set group =>   2
Atom  14H    basis set group =>   3
Atom  15H    basis set group =>   3
Atom  16O    basis set group =>   2
Atom  17H    basis set group =>   3
Atom  18H    basis set group =>   3
Atom  19O    basis set group =>   2
Atom  20H    basis set group =>   3
Atom  21H    basis set group =>   3
Atom  22O    basis set group =>   2
Atom  23H    basis set group =>   3
Atom  24H    basis set group =>   3


           ************************************************************
           *        Program running with 16 parallel MPI-processes    *
           *              working on a common directory               *
           ************************************************************
------------------------------------------------------------------------------
                           ORCA GTO INTEGRAL CALCULATION
                           -- RI-GTO INTEGRALS CHOSEN --
------------------------------------------------------------------------------
------------------------------------------------------------------------------
                   ___                                                        
                  /   \      - P O W E R E D   B Y -                         
                 /     \                                                     
                 |  |  |   _    _      __       _____    __    __             
                 |  |  |  | |  | |    /  \     |  _  \  |  |  /  |          
                  \  \/   | |  | |   /    \    | | | |  |  | /  /          
                 / \  \   | |__| |  /  /\  \   | |_| |  |  |/  /          
                |  |  |   |  __  | /  /__\  \  |    /   |      \           
                |  |  |   | |  | | |   __   |  |    \   |  |\   \          
                \     /   | |  | | |  |  |  |  | |\  \  |  | \   \       
                 \___/    |_|  |_| |__|  |__|  |_| \__\ |__|  \__/        
                                                                              
                      - O R C A' S   B I G   F R I E N D -                    
                                      &                                       
                       - I N T E G R A L  F E E D E R -                       
                                                                              
 v1 FN, 2020, v2 2021                                                         
------------------------------------------------------------------------------


Reading SHARK input file k_8w_freq.SHARKINP.tmp ... ok
----------------------
SHARK INTEGRAL PACKAGE
----------------------

Number of atoms                             ...     25
Number of basis functions                   ...    377
Number of shells                            ...    165
Maximum angular momentum                    ...      3
Integral batch strategy                     ... SHARK/LIBINT Hybrid
RI-J (if used) integral strategy            ... SPLIT-RIJ (Revised 2003 algorithm where possible)
Printlevel                                  ...      1
Contraction scheme used                     ... SEGMENTED contraction
Coulomb Range Separation                    ... NOT USED
Exchange Range Separation                   ... Long Range
   Mu parameter                             ...  0.250000
   Scaling (regular/separated)              ...  0.195728  0.804272
Finite Nucleus Model                        ... NOT USED
Auxiliary Coulomb fitting basis             ... AVAILABLE
   # of basis functions in Aux-J            ...    624
   # of shells in Aux-J                     ...    218
   Maximum angular momentum in Aux-J        ...      4
Auxiliary J/K fitting basis                 ... NOT available
Auxiliary Correlation fitting basis         ... NOT available
Auxiliary 'external' fitting basis          ... NOT available
Integral threshold                          ...     2.500000e-11
Primitive cut-off                           ...     2.500000e-12
Primitive pair pre-selection threshold      ...     2.500000e-12

Calculating pre-screening integrals         ... done (  0.0 sec) Dimension = 165
Organizing shell pair data                  ... done (  0.1 sec)
Shell pair information
Total number of shell pairs                 ...     13695
Shell pairs after pre-screening             ...      9994
Total number of primitive shell pairs       ...     41605
Primitive shell pairs kept                  ...     20344
          la=0 lb=0:   3369 shell pairs
          la=1 lb=0:   3105 shell pairs
          la=1 lb=1:    751 shell pairs
          la=2 lb=0:   1266 shell pairs
          la=2 lb=1:    591 shell pairs
          la=2 lb=2:    128 shell pairs
          la=3 lb=0:    468 shell pairs
          la=3 lb=1:    225 shell pairs
          la=3 lb=2:     72 shell pairs
          la=3 lb=3:     19 shell pairs

Calculating one electron integrals          ... done (  0.0 sec)
Calculating RI/J V-Matrix + Cholesky decomp.... done (  0.0 sec)
Calculating Nuclear repulsion               ... done (  0.0 sec) ENN=    681.031827773620 Eh

SHARK setup successfully completed in   0.3 seconds

Maximum memory used throughout the entire GTOINT-calculation: 26.0 MB


           ************************************************************
           *        Program running with 16 parallel MPI-processes    *
           *              working on a common directory               *
           ************************************************************
-------------------------------------------------------------------------------
                                 ORCA SCF
-------------------------------------------------------------------------------

------------
SCF SETTINGS
------------
Hamiltonian:
 Density Functional     Method          .... DFT(GTOs)
 Exchange Functional    Exchange        .... WB97X-D3
 Correlation Functional Correlation     .... WB97X-D3
 Gradients option       PostSCFGGA      .... off
 Hybrid DFT is turned on
   Fraction HF Exchange ScalHFX         ....  0.195728
   Scaling of DF-GGA-X  ScalDFX         ....  0.000000
   Scaling of DF-GGA-C  ScalDFC         ....  1.000000
   Scaling of DF-LDA-C  ScalLDAC        ....  1.000000
   Perturbative correction              ....  0.000000
   Density functional embedding theory  .... OFF
 Long-range corrected/Screened/Range-Separated Hybrid DFT is turned on
   Amount of maximum screened exact exchange              ....  0.804272
   Range separation parameter mu (erf(mu*r12)/r12)        ....  0.250000
 RI-approximation to the Coulomb term is turned on
   Number of AuxJ basis functions       .... 624
   RIJ-COSX (HFX calculated with COS-X)).... on


General Settings:
 Integral files         IntName         .... k_8w_freq
 Hartree-Fock type      HFTyp           .... RHF
 Total Charge           Charge          ....    1
 Multiplicity           Mult            ....    1
 Number of Electrons    NEL             ....   98
 Basis Dimension        Dim             ....  377
 Nuclear Repulsion      ENuc            ....    681.0318277736 Eh

Convergence Acceleration:
 DIIS                   CNVDIIS         .... on
   Start iteration      DIISMaxIt       ....    12
   Startup error        DIISStart       ....  0.200000
   # of expansion vecs  DIISMaxEq       ....     5
   Bias factor          DIISBfac        ....   1.050
   Max. coefficient     DIISMaxC        ....  10.000
 Trust-Rad. Augm. Hess. CNVTRAH         .... auto
   Auto Start mean grad. ratio tolernc. ....  1.125000
   Auto Start start iteration           ....    20
   Auto Start num. interpolation iter.  ....    10
   Max. Number of Micro iterations      ....    16
   Max. Number of Macro iterations      .... Maxiter - #DIIS iter
   Number of Davidson start vectors     ....     2
   Converg. threshold I  (grad. norm)   ....   1.000e-05
   Converg. threshold II (energy diff.) ....   1.000e-08
   Grad. Scal. Fac. for Micro threshold ....   0.100
   Minimum threshold for Micro iter.    ....   0.010
   NR start threshold (gradient norm)   ....   0.001
   Initial trust radius                 ....   0.400
   Minimum AH scaling param. (alpha)    ....   1.000
   Maximum AH scaling param. (alpha)    .... 1000.000
   Orbital update algorithm             .... Taylor
   White noise on init. David. guess    .... on
   Maximum white noise                  ....   0.010
   Quad. conv. algorithm                .... NR
 SOSCF                  CNVSOSCF        .... on
   Start iteration      SOSCFMaxIt      ....   150
   Startup grad/error   SOSCFStart      ....  0.003300
 Level Shifting         CNVShift        .... on
   Level shift para.    LevelShift      ....    0.2500
   Turn off err/grad.   ShiftErr        ....    0.0010
 Zerner damping         CNVZerner       .... off
 Static damping         CNVDamp         .... on
   Fraction old density DampFac         ....    0.7000
   Max. Damping (<1)    DampMax         ....    0.9800
   Min. Damping (>=0)   DampMin         ....    0.0000
   Turn off err/grad.   DampErr         ....    0.1000
 Fernandez-Rico         CNVRico         .... off

SCF Procedure:
 Maximum # iterations   MaxIter         ....   125
 SCF integral mode      SCFMode         .... Direct
   Integral package                     .... SHARK and LIBINT hybrid scheme
 Reset frequency        DirectResetFreq ....    20
 Integral Threshold     Thresh          ....  2.500e-11 Eh
 Primitive CutOff       TCut            ....  2.500e-12 Eh

Convergence Tolerance:
 Convergence Check Mode ConvCheckMode   .... Total+1el-Energy
 Convergence forced     ConvForced      .... 0
 Energy Change          TolE            ....  1.000e-08 Eh
 1-El. energy change                    ....  1.000e-05 Eh
 Orbital Gradient       TolG            ....  1.000e-05
 Orbital Rotation angle TolX            ....  1.000e-05
 DIIS Error             TolErr          ....  5.000e-07


Diagonalization of the overlap matrix:
Smallest eigenvalue                        ... 4.063e-03
Time for diagonalization                   ...    0.013 sec
Threshold for overlap eigenvalues          ... 1.000e-08
Number of eigenvalues below threshold      ... 0
Time for construction of square roots      ...    0.011 sec
Total time needed                          ...    0.026 sec

Time for model grid setup =    0.088 sec

------------------------------
INITIAL GUESS: MODEL POTENTIAL
------------------------------
Loading Hartree-Fock densities                     ... done
Calculating cut-offs                               ... done
Initializing the effective Hamiltonian             ... done
Setting up the integral package (SHARK)            ... done
Starting the Coulomb interaction                   ... done (   0.0 sec)
Reading the grid                                   ... done
Mapping shells                                     ... done
Starting the XC term evaluation                    ... done (   0.0 sec)
  promolecular density results
     # of electrons  =     98.992101359
     EX              =   -102.442545950
     EC              =     -3.316403786
     EX+EC           =   -105.758949736
Transforming the Hamiltonian                       ... done (   0.0 sec)
Diagonalizing the Hamiltonian                      ... done (   0.0 sec)
Back transforming the eigenvectors                 ... done (   0.0 sec)
Now organizing SCF variables                       ... done
                      ------------------
                      INITIAL GUESS DONE (   0.2 sec)
                      ------------------
-------------------
DFT GRID GENERATION
-------------------

General Integration Accuracy     IntAcc      ... 4.388
Radial Grid Type                 RadialGrid  ... OptM3 with GC (2021)
Angular Grid (max. ang.)         AngularGrid ... 4 (Lebedev-302)
Angular grid pruning method      GridPruning ... 4 (adaptive)
Weight generation scheme         WeightScheme... Becke
Basis function cutoff            BFCut       ... 1.0000e-11
Integration weight cutoff        WCut        ... 1.0000e-14
Angular grids for H and He will be reduced by one unit
Partially contracted basis set               ... off
Rotationally invariant grid construction     ... off

Total number of grid points                  ...   111230
Total number of batches                      ...     1751
Average number of points per batch           ...       63
Average number of grid points per atom       ...     4449
Time for grid setup =    0.389 sec

--------------------
COSX GRID GENERATION
--------------------

GRIDX 1
-------
General Integration Accuracy     IntAcc      ... 3.816
Radial Grid Type                 RadialGrid  ... OptM3 with GC (2021)
Angular Grid (max. ang.)         AngularGrid ... 1 (Lebedev-50)
Angular grid pruning method      GridPruning ... 4 (adaptive)
Weight generation scheme         WeightScheme... Becke
Basis function cutoff            BFCut       ... 1.0000e-11
Integration weight cutoff        WCut        ... 1.0000e-14
Angular grids for H and He will be reduced by one unit
Partially contracted basis set               ... on
Rotationally invariant grid construction     ... off

Total number of grid points                  ...    14057
Total number of batches                      ...      232
Average number of points per batch           ...       60
Average number of grid points per atom       ...      562
UseSFitting                                  ... on

GRIDX 2
-------
General Integration Accuracy     IntAcc      ... 4.020
Radial Grid Type                 RadialGrid  ... OptM3 with GC (2021)
Angular Grid (max. ang.)         AngularGrid ... 2 (Lebedev-110)
Angular grid pruning method      GridPruning ... 4 (adaptive)
Weight generation scheme         WeightScheme... Becke
Basis function cutoff            BFCut       ... 1.0000e-11
Integration weight cutoff        WCut        ... 1.0000e-14
Angular grids for H and He will be reduced by one unit
Partially contracted basis set               ... on
Rotationally invariant grid construction     ... off

Total number of grid points                  ...    29271
Total number of batches                      ...      470
Average number of points per batch           ...       62
Average number of grid points per atom       ...     1171
UseSFitting                                  ... on

GRIDX 3
-------
General Integration Accuracy     IntAcc      ... 4.338
Radial Grid Type                 RadialGrid  ... OptM3 with GC (2021)
Angular Grid (max. ang.)         AngularGrid ... 3 (Lebedev-194)
Angular grid pruning method      GridPruning ... 4 (adaptive)
Weight generation scheme         WeightScheme... Becke
Basis function cutoff            BFCut       ... 1.0000e-11
Integration weight cutoff        WCut        ... 1.0000e-14
Angular grids for H and He will be reduced by one unit
Partially contracted basis set               ... on
Rotationally invariant grid construction     ... off

Total number of grid points                  ...    63940
Total number of batches                      ...     1011
Average number of points per batch           ...       63
Average number of grid points per atom       ...     2558
UseSFitting                                  ... on

Time for X-Grid setup             =    0.375 sec


--------------------
CPCM SOLVATION MODEL
--------------------
CPCM parameters:
  Epsilon                                         ...     INFINITY
  Refrac                                          ...       1.3300
  Rsolv                                           ...       1.3000
  Surface type                                    ... GAUSSIAN VDW
  Epsilon function type                           ...         CPCM
Radii:
 Radius for K  used is    6.2361 Bohr (=   3.3000 Ang.)
 Radius for O  used is    3.4469 Bohr (=   1.8240 Ang.)
 Radius for H  used is    2.4944 Bohr (=   1.3200 Ang.)
Calculating surface                               ...        done! (  0.0s)
GEPOL surface points                              ...         1497
GEPOL Volume                                      ...    1821.5857
GEPOL Surface-area                                ...     908.4622
Calculating surface distance matrix               ...        done! (  0.0s)
Performing Cholesky decomposition & store         ...        done! (  0.1s)
Overall time for CPCM initialization              ...                 0.1s
--------------
SCF ITERATIONS
--------------
ITER       Energy         Delta-E        Max-DP      RMS-DP      [F,P]     Damp
               ***  Starting incremental Fock matrix formation  ***
  0  -1210.8880576428   0.000000000000 0.04316089  0.00090886  0.3077826 0.7000
  1  -1211.1725494322  -0.284491789382 0.02504271  0.00059145  0.1519527 0.7000
                               ***Turning on DIIS***
  2  -1211.2900982415  -0.117548809279 0.03630306  0.00092607  0.0581242 0.0000
  3  -1211.4739499414  -0.183851699935 0.01839933  0.00038284  0.0785455 0.0000
  4  -1211.5108221464  -0.036872205020 0.00252118  0.00006851  0.0105243 0.0000
                      *** Initiating the SOSCF procedure ***
                           *** Shutting down DIIS ***
                      *** Re-Reading the Fockian *** 
                      *** Removing any level shift *** 
ITER      Energy       Delta-E        Grad      Rot      Max-DP    RMS-DP
  5  -1211.51152793  -0.0007057876  0.000420  0.000420  0.000870  0.000021
               *** Restarting incremental Fock matrix formation ***
  6  -1211.51156049  -0.0000325555  0.000194  0.000321  0.000527  0.000013
  7  -1211.51156339  -0.0000029001  0.000148  0.000160  0.000266  0.000006
  8  -1211.51156493  -0.0000015394  0.000012  0.000021  0.000044  0.000001
  9  -1211.51156494  -0.0000000143  0.000004  0.000015  0.000015  0.000000
 10  -1211.51156495  -0.0000000081  0.000005  0.000002  0.000007  0.000000
                  ***Gradient check signals convergence***
              ***Rediagonalizing the Fockian in SOSCF/NRSCF***

               *****************************************************
               *                     SUCCESS                       *
               *           SCF CONVERGED AFTER  11 CYCLES          *
               *****************************************************

Old exchange energy                            =    -31.028348706 Eh
New exchange energy                            =    -31.028320263 Eh
Exchange energy change after final integration =      0.000028444 Eh
Total energy after final integration           =  -1211.511536497 Eh
Final COS-X integration done in                =     2.634 sec

----------------
TOTAL SCF ENERGY
----------------

Total Energy       :        -1211.51153650 Eh          -32966.90491 eV

Components:
Nuclear Repulsion  :          681.03182777 Eh           18531.81817 eV
Electronic Energy  :        -1892.54336427 Eh          -51498.72309 eV
One Electron Energy:        -3010.31782147 Eh          -81914.91240 eV
Two Electron Energy:         1117.77445720 Eh           30416.18931 eV
Max COSX asymmetry :            0.00001104 Eh               0.00030 eV
CPCM Dielectric    :           -0.14244795 Eh              -3.87621 eV

Virial components:
Potential Energy   :        -2419.56713428 Eh          -65839.76895 eV
Kinetic Energy     :         1208.05559778 Eh           32872.86404 eV
Virial Ratio       :            2.00286074


DFT components:
N(Alpha)           :       49.000176484153 electrons
N(Beta)            :       49.000176484153 electrons
N(Total)           :       98.000352968307 electrons
E(XC)              :      -76.914634026899 Eh       
DFET-embed. en.    :        0.000000000000 Eh       
CPCM Solvation Model Properties:
Surface-charge          :           -1.01574657
Charge-correction       :            0.00211589 Eh               0.05758 eV
Free-energy (cav+disp)  :  This term is not implemented in the current solvation scheme

---------------
SCF CONVERGENCE
---------------

  Last Energy change         ...    1.0236e-08  Tolerance :   1.0000e-08
  Last MAX-Density change    ...    3.5527e-15  Tolerance :   1.0000e-07
  Last RMS-Density change    ...    2.2675e-17  Tolerance :   5.0000e-09
  Last Orbital Gradient      ...    3.1824e-07  Tolerance :   1.0000e-05
  Last Orbital Rotation      ...    4.7848e-07  Tolerance :   1.0000e-05

             **** THE GBW FILE WAS UPDATED (k_8w_freq.gbw) ****
             **** DENSITY k_8w_freq.scfp WAS UPDATED ****
             **** ENERGY FILE WAS UPDATED (k_8w_freq.en.tmp) ****
             **** THE GBW FILE WAS UPDATED (k_8w_freq.gbw) ****
             **** DENSITY k_8w_freq.scfp WAS UPDATED ****
----------------
ORBITAL ENERGIES
----------------

  NO   OCC          E(Eh)            E(eV) 
   0   2.0000    -129.822174     -3532.6410 
   1   2.0000     -19.253175      -523.9055 
   2   2.0000     -19.245155      -523.6873 
   3   2.0000     -19.244797      -523.6776 
   4   2.0000     -19.244409      -523.6670 
   5   2.0000     -19.239944      -523.5455 
   6   2.0000     -19.238252      -523.4995 
   7   2.0000     -19.234961      -523.4099 
   8   2.0000     -19.227477      -523.2063 
   9   2.0000     -13.256662      -360.7321 
  10   2.0000     -10.588833      -288.1368 
  11   2.0000     -10.588733      -288.1341 
  12   2.0000     -10.588691      -288.1329 
  13   2.0000      -1.431322       -38.9483 
  14   2.0000      -1.150574       -31.3087 
  15   2.0000      -1.140390       -31.0316 
  16   2.0000      -1.139645       -31.0113 
  17   2.0000      -1.139030       -30.9946 
  18   2.0000      -1.134980       -30.8844 
  19   2.0000      -1.133203       -30.8360 
  20   2.0000      -1.130739       -30.7690 
  21   2.0000      -1.117660       -30.4131 
  22   2.0000      -0.788633       -21.4598 
  23   2.0000      -0.788218       -21.4485 
  24   2.0000      -0.787118       -21.4186 
  25   2.0000      -0.650211       -17.6931 
  26   2.0000      -0.645709       -17.5706 
  27   2.0000      -0.642472       -17.4826 
  28   2.0000      -0.639427       -17.3997 
  29   2.0000      -0.638856       -17.3841 
  30   2.0000      -0.637751       -17.3541 
  31   2.0000      -0.634997       -17.2791 
  32   2.0000      -0.627535       -17.0761 
  33   2.0000      -0.525275       -14.2935 
  34   2.0000      -0.512852       -13.9554 
  35   2.0000      -0.511351       -13.9146 
  36   2.0000      -0.507363       -13.8061 
  37   2.0000      -0.505316       -13.7504 
  38   2.0000      -0.503444       -13.6994 
  39   2.0000      -0.503196       -13.6927 
  40   2.0000      -0.492507       -13.4018 
  41   2.0000      -0.441111       -12.0033 
  42   2.0000      -0.435070       -11.8389 
  43   2.0000      -0.434156       -11.8140 
  44   2.0000      -0.431632       -11.7453 
  45   2.0000      -0.430441       -11.7129 
  46   2.0000      -0.426207       -11.5977 
  47   2.0000      -0.421543       -11.4708 
  48   2.0000      -0.417355       -11.3568 
  49   0.0000       0.029710         0.8085 
  50   0.0000       0.087834         2.3901 
  51   0.0000       0.101767         2.7692 
  52   0.0000       0.110894         3.0176 
  53   0.0000       0.130362         3.5473 
  54   0.0000       0.140664         3.8277 
  55   0.0000       0.152158         4.1404 
  56   0.0000       0.160375         4.3640 
  57   0.0000       0.169423         4.6102 
  58   0.0000       0.177079         4.8186 
  59   0.0000       0.201320         5.4782 
  60   0.0000       0.204269         5.5584 
  61   0.0000       0.208537         5.6746 
  62   0.0000       0.214945         5.8490 
  63   0.0000       0.222492         6.0543 
  64   0.0000       0.228157         6.2085 
  65   0.0000       0.233024         6.3409 
  66   0.0000       0.241983         6.5847 
  67   0.0000       0.262609         7.1460 
  68   0.0000       0.272183         7.4065 
  69   0.0000       0.278294         7.5728 
  70   0.0000       0.293708         7.9922 
  71   0.0000       0.296703         8.0737 
  72   0.0000       0.308327         8.3900 
  73   0.0000       0.325834         8.8664 
  74   0.0000       0.339849         9.2478 
  75   0.0000       0.380545        10.3552 
  76   0.0000       0.389593        10.6014 
  77   0.0000       0.394276        10.7288 
  78   0.0000       0.403019        10.9667 
  79   0.0000       0.409684        11.1481 
  80   0.0000       0.419853        11.4248 
  81   0.0000       0.438986        11.9454 
  82   0.0000       0.458467        12.4755 
  83   0.0000       0.462291        12.5796 
  84   0.0000       0.480723        13.0811 
  85   0.0000       0.483066        13.1449 
  86   0.0000       0.491590        13.3768 
  87   0.0000       0.501744        13.6532 
  88   0.0000       0.508682        13.8420 
  89   0.0000       0.511814        13.9272 
  90   0.0000       0.520124        14.1533 
  91   0.0000       0.522354        14.2140 
  92   0.0000       0.532694        14.4953 
  93   0.0000       0.541968        14.7477 
  94   0.0000       0.545692        14.8490 
  95   0.0000       0.562565        15.3082 
  96   0.0000       0.567163        15.4333 
  97   0.0000       0.572553        15.5800 
  98   0.0000       0.575472        15.6594 
  99   0.0000       0.597208        16.2509 
 100   0.0000       0.602954        16.4072 
 101   0.0000       0.618061        16.8183 
 102   0.0000       0.635175        17.2840 
 103   0.0000       0.637082        17.3359 
 104   0.0000       0.666175        18.1276 
 105   0.0000       0.672493        18.2995 
 106   0.0000       0.680048        18.5050 
 107   0.0000       0.685154        18.6440 
 108   0.0000       0.687721        18.7138 
 109   0.0000       0.690434        18.7877 
 110   0.0000       0.695895        18.9363 
 111   0.0000       0.703949        19.1554 
 112   0.0000       0.711457        19.3597 
 113   0.0000       0.720769        19.6131 
 114   0.0000       0.725319        19.7369 
 115   0.0000       0.731948        19.9173 
 116   0.0000       0.740790        20.1579 
 117   0.0000       0.742866        20.2144 
 118   0.0000       0.750491        20.4219 
 119   0.0000       0.771508        20.9938 
 120   0.0000       0.784074        21.3357 
 121   0.0000       0.827763        22.5246 
 122   0.0000       0.840096        22.8602 
 123   0.0000       0.861593        23.4451 
 124   0.0000       0.883393        24.0383 
 125   0.0000       0.897658        24.4265 
 126   0.0000       0.944692        25.7064 
 127   0.0000       0.995770        27.0963 
 128   0.0000       1.007039        27.4029 
 129   0.0000       1.016051        27.6482 
 130   0.0000       1.043630        28.3986 
 131   0.0000       1.160145        31.5691 
 132   0.0000       1.217008        33.1165 
 133   0.0000       1.233410        33.5628 
 134   0.0000       1.239231        33.7212 
 135   0.0000       1.245509        33.8920 
 136   0.0000       1.250987        34.0411 
 137   0.0000       1.260208        34.2920 
 138   0.0000       1.275128        34.6980 
 139   0.0000       1.283180        34.9171 
 140   0.0000       1.285911        34.9914 
 141   0.0000       1.293168        35.1889 
 142   0.0000       1.306013        35.5384 
 143   0.0000       1.308075        35.5945 
 144   0.0000       1.320386        35.9295 
 145   0.0000       1.324127        36.0313 
 146   0.0000       1.338029        36.4096 
 147   0.0000       1.341812        36.5126 
 148   0.0000       1.354150        36.8483 
 149   0.0000       1.369362        37.2622 
 150   0.0000       1.378868        37.5209 
 151   0.0000       1.390181        37.8287 
 152   0.0000       1.414683        38.4955 
 153   0.0000       1.436013        39.0759 
 154   0.0000       1.454615        39.5821 
 155   0.0000       1.470944        40.0264 
 156   0.0000       1.495305        40.6893 
 157   0.0000       1.522354        41.4254 
 158   0.0000       1.559321        42.4313 
 159   0.0000       1.623670        44.1823 
 160   0.0000       1.634161        44.4678 
 161   0.0000       1.670420        45.4544 
 162   0.0000       1.685273        45.8586 
 163   0.0000       1.689040        45.9611 
 164   0.0000       1.696922        46.1756 
 165   0.0000       1.708206        46.4826 
 166   0.0000       1.720725        46.8233 
 167   0.0000       1.737388        47.2767 
 168   0.0000       1.746476        47.5240 
 169   0.0000       1.754445        47.7409 
 170   0.0000       1.766017        48.0558 
 171   0.0000       1.768427        48.1213 
 172   0.0000       1.775535        48.3148 
 173   0.0000       1.776180        48.3323 
 174   0.0000       1.795746        48.8647 
 175   0.0000       1.842329        50.1323 
 176   0.0000       1.855170        50.4817 
 177   0.0000       1.864634        50.7393 
 178   0.0000       1.869862        50.8815 
 179   0.0000       1.870800        50.9071 
 180   0.0000       1.873966        50.9932 
 181   0.0000       1.879495        51.1437 
 182   0.0000       1.911971        52.0274 
 183   0.0000       1.914663        52.1006 
 184   0.0000       2.010302        54.7031 
 185   0.0000       2.100928        57.1691 
 186   0.0000       2.120236        57.6946 
 187   0.0000       2.129579        57.9488 
 188   0.0000       2.139111        58.2082 
 189   0.0000       2.144200        58.3466 
 190   0.0000       2.151243        58.5383 
 191   0.0000       2.157289        58.7028 
 192   0.0000       2.163649        58.8759 
 193   0.0000       2.183778        59.4236 
 194   0.0000       2.193041        59.6757 
 195   0.0000       2.196017        59.7567 
 196   0.0000       2.197104        59.7862 
 197   0.0000       2.205442        60.0131 
 198   0.0000       2.208373        60.0929 
 199   0.0000       2.212939        60.2171 
 200   0.0000       2.224826        60.5406 
 201   0.0000       2.228551        60.6419 
 202   0.0000       2.237643        60.8894 
 203   0.0000       2.242718        61.0274 
 204   0.0000       2.268618        61.7322 
 205   0.0000       2.272086        61.8266 
 206   0.0000       2.289367        62.2968 
 207   0.0000       2.336455        63.5782 
 208   0.0000       2.372244        64.5520 
 209   0.0000       2.387240        64.9601 
 210   0.0000       2.400844        65.3303 
 211   0.0000       2.414867        65.7119 
 212   0.0000       2.421113        65.8818 
 213   0.0000       2.423243        65.9398 
 214   0.0000       2.437377        66.3244 
 215   0.0000       2.461053        66.9687 
 216   0.0000       2.480667        67.5024 
 217   0.0000       2.505096        68.1671 
 218   0.0000       2.521327        68.6088 
 219   0.0000       2.526483        68.7491 
 220   0.0000       2.536314        69.0166 
 221   0.0000       2.543821        69.2209 
 222   0.0000       2.549840        69.3847 
 223   0.0000       2.559872        69.6577 
 224   0.0000       2.578113        70.1540 
 225   0.0000       2.660133        72.3859 
 226   0.0000       2.683891        73.0324 
 227   0.0000       2.698138        73.4201 
 228   0.0000       2.710562        73.7581 
 229   0.0000       2.714368        73.8617 
 230   0.0000       2.726025        74.1789 
 231   0.0000       2.735671        74.4414 
 232   0.0000       2.739219        74.5379 
 233   0.0000       2.745025        74.6959 
 234   0.0000       2.750026        74.8320 
 235   0.0000       2.755193        74.9726 
 236   0.0000       2.762805        75.1797 
 237   0.0000       2.772006        75.4301 
 238   0.0000       2.783084        75.7316 
 239   0.0000       2.793029        76.0022 
 240   0.0000       2.794040        76.0297 
 241   0.0000       2.802698        76.2653 
 242   0.0000       2.815870        76.6237 
 243   0.0000       2.830740        77.0284 
 244   0.0000       2.848617        77.5148 
 245   0.0000       2.867001        78.0151 
 246   0.0000       2.889765        78.6345 
 247   0.0000       2.946925        80.1899 
 248   0.0000       2.971594        80.8612 
 249   0.0000       3.024276        82.2947 
 250   0.0000       3.055111        83.1338 
 251   0.0000       3.063644        83.3660 
 252   0.0000       3.082495        83.8790 
 253   0.0000       3.098843        84.3238 
 254   0.0000       3.132734        85.2460 
 255   0.0000       3.178854        86.5010 
 256   0.0000       3.199421        87.0607 
 257   0.0000       3.735139       101.6383 
 258   0.0000       3.758973       102.2868 
 259   0.0000       3.765366       102.4608 
 260   0.0000       3.771172       102.6188 
 261   0.0000       3.781885       102.9103 
 262   0.0000       3.790082       103.1334 
 263   0.0000       3.804465       103.5248 
 264   0.0000       3.857356       104.9640 
 265   0.0000       4.012191       109.1773 
 266   0.0000       4.018548       109.3503 
 267   0.0000       4.029678       109.6531 
 268   0.0000       4.032936       109.7418 
 269   0.0000       4.037150       109.8564 
 270   0.0000       4.044995       110.0699 
 271   0.0000       4.046272       110.1047 
 272   0.0000       4.103814       111.6705 
 273   0.0000       5.171253       140.7170 
 274   0.0000       5.181900       141.0067 
 275   0.0000       5.182066       141.0112 
 276   0.0000       5.183200       141.0420 
 277   0.0000       5.186661       141.1362 
 278   0.0000       5.187752       141.1659 
 279   0.0000       5.188487       141.1859 
 280   0.0000       5.196589       141.4064 
 281   0.0000       5.290022       143.9488 
 282   0.0000       5.291112       143.9785 
 283   0.0000       5.292515       144.0167 
 284   0.0000       5.296573       144.1271 
 285   0.0000       5.297823       144.1611 
 286   0.0000       5.298625       144.1829 
 287   0.0000       5.303920       144.3270 
 288   0.0000       5.307183       144.4158 
 289   0.0000       5.451348       148.3387 
 290   0.0000       5.465223       148.7163 
 291   0.0000       5.466584       148.7533 
 292   0.0000       5.468011       148.7922 
 293   0.0000       5.469250       148.8259 
 294   0.0000       5.471312       148.8820 
 295   0.0000       5.474531       148.9696 
 296   0.0000       5.479184       149.0962 
 297   0.0000       5.484321       149.2360 
 298   0.0000       5.492905       149.4695 
 299   0.0000       5.493607       149.4886 
 300   0.0000       5.497041       149.5821 
 301   0.0000       5.497267       149.5882 
 302   0.0000       5.503207       149.7499 
 303   0.0000       5.505427       149.8103 
 304   0.0000       5.511326       149.9708 
 305   0.0000       5.533663       150.5786 
 306   0.0000       5.545630       150.9043 
 307   0.0000       5.548568       150.9842 
 308   0.0000       5.549163       151.0004 
 309   0.0000       5.550042       151.0243 
 310   0.0000       5.555704       151.1784 
 311   0.0000       5.557197       151.2190 
 312   0.0000       5.565342       151.4407 
 313   0.0000       6.086702       165.6276 
 314   0.0000       6.100304       165.9977 
 315   0.0000       6.118426       166.4908 
 316   0.0000       6.121825       166.5833 
 317   0.0000       6.127363       166.7340 
 318   0.0000       6.132590       166.8763 
 319   0.0000       6.133230       166.8937 
 320   0.0000       6.136841       166.9919 
 321   0.0000       6.279578       170.8760 
 322   0.0000       6.310229       171.7101 
 323   0.0000       6.313168       171.7900 
 324   0.0000       6.316319       171.8758 
 325   0.0000       6.318390       171.9321 
 326   0.0000       6.322295       172.0384 
 327   0.0000       6.335953       172.4100 
 328   0.0000       6.340615       172.5369 
 329   0.0000       6.400608       174.1694 
 330   0.0000       6.409449       174.4100 
 331   0.0000       6.415267       174.5683 
 332   0.0000       6.418625       174.6597 
 333   0.0000       6.428908       174.9395 
 334   0.0000       6.431378       175.0067 
 335   0.0000       6.443230       175.3292 
 336   0.0000       6.453125       175.5985 
 337   0.0000       6.458499       175.7447 
 338   0.0000       6.459359       175.7681 
 339   0.0000       6.468039       176.0043 
 340   0.0000       6.471723       176.1045 
 341   0.0000       6.476242       176.2275 
 342   0.0000       6.481534       176.3715 
 343   0.0000       6.501297       176.9093 
 344   0.0000       6.504809       177.0049 
 345   0.0000       6.508571       177.1072 
 346   0.0000       6.515643       177.2997 
 347   0.0000       6.516117       177.3126 
 348   0.0000       6.521312       177.4539 
 349   0.0000       6.525111       177.5573 
 350   0.0000       6.541430       178.0014 
 351   0.0000       6.576490       178.9554 
 352   0.0000       6.615239       180.0098 
 353   0.0000       6.975599       189.8157 
 354   0.0000       6.989723       190.2000 
 355   0.0000       6.994505       190.3302 
 356   0.0000       6.996583       190.3867 
 357   0.0000       7.007466       190.6828 
 358   0.0000       7.011241       190.7856 
 359   0.0000       7.035591       191.4482 
 360   0.0000       7.083255       192.7452 
 361   0.0000       7.095202       193.0703 
 362   0.0000       7.107022       193.3919 
 363   0.0000       7.112742       193.5475 
 364   0.0000       7.118501       193.7043 
 365   0.0000       7.118856       193.7139 
 366   0.0000       7.125764       193.9019 
 367   0.0000       7.151944       194.6143 
 368   0.0000       7.187590       195.5843 
 369   0.0000      43.392250      1180.7632 
 370   0.0000      43.414243      1181.3616 
 371   0.0000      43.426609      1181.6981 
 372   0.0000      43.446681      1182.2443 
 373   0.0000      43.496894      1183.6107 
 374   0.0000      43.512426      1184.0333 
 375   0.0000      43.555404      1185.2028 
 376   0.0000      43.567856      1185.5416 

                    ********************************
                    * MULLIKEN POPULATION ANALYSIS *
                    ********************************

-----------------------
MULLIKEN ATOMIC CHARGES
-----------------------
   0 K :    0.707677
   1 O :   -0.713195
   2 H :    0.379583
   3 H :    0.379800
   4 O :   -0.717057
   5 H :    0.374970
   6 H :    0.388038
   7 O :   -0.697643
   8 H :    0.379339
   9 H :    0.356972
  10 O :   -0.715595
  11 H :    0.379105
  12 H :    0.380066
  13 O :   -0.724656
  14 H :    0.370991
  15 H :    0.364528
  16 O :   -0.705567
  17 H :    0.381603
  18 H :    0.379740
  19 O :   -0.722714
  20 H :    0.359239
  21 H :    0.372953
  22 O :   -0.719278
  23 H :    0.380064
  24 H :    0.381037
Sum of atomic charges:    1.0000000

--------------------------------
MULLIKEN REDUCED ORBITAL CHARGES
--------------------------------
  0 K s       :     6.066945  s :     6.066945
      pz      :     4.029035  p :    12.095308
      px      :     4.030012
      py      :     4.036261
      dz2     :     0.026296  d :     0.130070
      dxz     :     0.020684
      dyz     :     0.033046
      dx2y2   :     0.024358
      dxy     :     0.025686
  1 O s       :     3.807990  s :     3.807990
      pz      :     1.507602  p :     4.882765
      px      :     1.850254
      py      :     1.524908
      dz2     :     0.008816  d :     0.021120
      dxz     :     0.003549
      dyz     :     0.000485
      dx2y2   :     0.004506
      dxy     :     0.003763
      f0      :     0.000253  f :     0.001321
      f+1     :     0.000291
      f-1     :     0.000158
      f+2     :     0.000113
      f-2     :     0.000055
      f+3     :     0.000305
      f-3     :     0.000146
  2 H s       :     0.575165  s :     0.575165
      pz      :     0.011491  p :     0.045252
      px      :     0.015416
      py      :     0.018345
  3 H s       :     0.575095  s :     0.575095
      pz      :     0.018534  p :     0.045105
      px      :     0.015138
      py      :     0.011433
  4 O s       :     3.803680  s :     3.803680
      pz      :     1.464871  p :     4.891088
      px      :     1.517258
      py      :     1.908959
      dz2     :     0.011698  d :     0.020947
      dxz     :     0.000375
      dyz     :     0.001061
      dx2y2   :     0.004877
      dxy     :     0.002936
      f0      :     0.000505  f :     0.001342
      f+1     :     0.000114
      f-1     :     0.000047
      f+2     :     0.000075
      f-2     :     0.000035
      f+3     :     0.000248
      f-3     :     0.000317
  5 H s       :     0.579756  s :     0.579756
      pz      :     0.019256  p :     0.045274
      px      :     0.010831
      py      :     0.015187
  6 H s       :     0.567121  s :     0.567121
      pz      :     0.010526  p :     0.044841
      px      :     0.018832
      py      :     0.015484
  7 O s       :     3.798658  s :     3.798658
      pz      :     1.407911  p :     4.876415
      px      :     1.619449
      py      :     1.849056
      dz2     :     0.008319  d :     0.021314
      dxz     :     0.001362
      dyz     :     0.003009
      dx2y2   :     0.002441
      dxy     :     0.006183
      f0      :     0.000525  f :     0.001256
      f+1     :     0.000001
      f-1     :     0.000116
      f+2     :     0.000074
      f-2     :     0.000157
      f+3     :     0.000052
      f-3     :     0.000331
  8 H s       :     0.576208  s :     0.576208
      pz      :     0.011411  p :     0.044453
      px      :     0.017573
      py      :     0.015469
  9 H s       :     0.598099  s :     0.598099
      pz      :     0.019273  p :     0.044929
      px      :     0.011736
      py      :     0.013920
 10 O s       :     3.806910  s :     3.806910
      pz      :     1.496907  p :     4.886252
      px      :     1.839887
      py      :     1.549458
      dz2     :     0.006539  d :     0.021099
      dxz     :     0.005223
      dyz     :     0.000705
      dx2y2   :     0.004324
      dxy     :     0.004309
      f0      :     0.000222  f :     0.001333
      f+1     :     0.000387
      f-1     :     0.000092
      f+2     :     0.000176
      f-2     :     0.000075
      f+3     :     0.000267
      f-3     :     0.000114
 11 H s       :     0.575953  s :     0.575953
      pz      :     0.018388  p :     0.044942
      px      :     0.015204
      py      :     0.011349
 12 H s       :     0.574967  s :     0.574967
      pz      :     0.011801  p :     0.044967
      px      :     0.014660
      py      :     0.018505
 13 O s       :     3.795146  s :     3.795146
      pz      :     1.642635  p :     4.908306
      px      :     1.595871
      py      :     1.669800
      dz2     :     0.004478  d :     0.020009
      dxz     :     0.007647
      dyz     :     0.004230
      dx2y2   :     0.000511
      dxy     :     0.003145
      f0      :     0.000030  f :     0.001194
      f+1     :     0.000274
      f-1     :     0.000012
      f+2     :     0.000126
      f-2     :     0.000308
      f+3     :     0.000231
      f-3     :     0.000214
 14 H s       :     0.575157  s :     0.575157
      pz      :     0.012690  p :     0.053852
      px      :     0.020371
      py      :     0.020791
 15 H s       :     0.590339  s :     0.590339
      pz      :     0.016463  p :     0.045133
      px      :     0.015265
      py      :     0.013404
 16 O s       :     3.808013  s :     3.808013
      pz      :     1.872424  p :     4.875039
      px      :     1.346820
      py      :     1.655795
      dz2     :     0.002839  d :     0.021193
      dxz     :     0.003565
      dyz     :     0.003688
      dx2y2   :     0.001697
      dxy     :     0.009404
      f0      :     0.000273  f :     0.001322
      f+1     :     0.000208
      f-1     :     0.000126
      f+2     :     0.000094
      f-2     :     0.000206
      f+3     :     0.000129
      f-3     :     0.000285
 17 H s       :     0.573288  s :     0.573288
      pz      :     0.014788  p :     0.045109
      px      :     0.014266
      py      :     0.016054
 18 H s       :     0.574865  s :     0.574865
      pz      :     0.015307  p :     0.045394
      px      :     0.016883
      py      :     0.013205
 19 O s       :     3.798301  s :     3.798301
      pz      :     1.827515  p :     4.903324
      px      :     1.397656
      py      :     1.678152
      dz2     :     0.002683  d :     0.019843
      dxz     :     0.002503
      dyz     :     0.003564
      dx2y2   :     0.000656
      dxy     :     0.010438
      f0      :     0.000233  f :     0.001246
      f+1     :     0.000211
      f-1     :     0.000123
      f+2     :     0.000092
      f-2     :     0.000254
      f+3     :     0.000024
      f-3     :     0.000309
 20 H s       :     0.586608  s :     0.586608
      pz      :     0.013329  p :     0.054153
      px      :     0.021461
      py      :     0.019363
 21 H s       :     0.581635  s :     0.581635
      pz      :     0.016570  p :     0.045413
      px      :     0.015248
      py      :     0.013595
 22 O s       :     3.808567  s :     3.808567
      pz      :     1.775986  p :     4.888226
      px      :     1.608906
      py      :     1.503333
      dz2     :     0.001976  d :     0.021146
      dxz     :     0.005143
      dyz     :     0.002063
      dx2y2   :     0.007352
      dxy     :     0.004613
      f0      :     0.000348  f :     0.001339
      f+1     :     0.000052
      f-1     :     0.000113
      f+2     :     0.000384
      f-2     :     0.000228
      f+3     :     0.000073
      f-3     :     0.000142
 23 H s       :     0.575206  s :     0.575206
      pz      :     0.014786  p :     0.044730
      px      :     0.011801
      py      :     0.018143
 24 H s       :     0.574028  s :     0.574028
      pz      :     0.015982  p :     0.044936
      px      :     0.017021
      py      :     0.011933


                     *******************************
                     * LOEWDIN POPULATION ANALYSIS *
                     *******************************

----------------------
LOEWDIN ATOMIC CHARGES
----------------------
   0 K :    0.237932
   1 O :   -0.239070
   2 H :    0.182072
   3 H :    0.182550
   4 O :   -0.245900
   5 H :    0.180866
   6 H :    0.189398
   7 O :   -0.264282
   8 H :    0.174991
   9 H :    0.168070
  10 O :   -0.248216
  11 H :    0.183190
  12 H :    0.184933
  13 O :   -0.297261
  14 H :    0.143382
  15 H :    0.165005
  16 O :   -0.240721
  17 H :    0.182520
  18 H :    0.182087
  19 O :   -0.269851
  20 H :    0.149157
  21 H :    0.176152
  22 O :   -0.248870
  23 H :    0.185775
  24 H :    0.186092

-------------------------------
LOEWDIN REDUCED ORBITAL CHARGES
-------------------------------
  0 K s       :     6.082571  s :     6.082571
      pz      :     4.061823  p :    12.179427
      px      :     4.055582
      py      :     4.062022
      dz2     :     0.111281  d :     0.500069
      dxz     :     0.070344
      dyz     :     0.122235
      dx2y2   :     0.099319
      dxy     :     0.096890
  1 O s       :     3.418431  s :     3.418431
      pz      :     1.488633  p :     4.789104
      px      :     1.795928
      py      :     1.504544
      dz2     :     0.013591  d :     0.029258
      dxz     :     0.004227
      dyz     :     0.000790
      dx2y2   :     0.006193
      dxy     :     0.004456
      f0      :     0.000518  f :     0.002277
      f+1     :     0.000567
      f-1     :     0.000318
      f+2     :     0.000112
      f-2     :     0.000076
      f+3     :     0.000494
      f-3     :     0.000192
  2 H s       :     0.655984  s :     0.655984
      pz      :     0.032553  p :     0.161944
      px      :     0.049231
      py      :     0.080160
  3 H s       :     0.655719  s :     0.655719
      pz      :     0.080846  p :     0.161731
      px      :     0.048451
      py      :     0.032434
  4 O s       :     3.418833  s :     3.418833
      pz      :     1.457543  p :     4.796022
      px      :     1.496092
      py      :     1.842387
      dz2     :     0.018099  d :     0.028754
      dxz     :     0.000287
      dyz     :     0.000390
      dx2y2   :     0.006585
      dxy     :     0.003393
      f0      :     0.001071  f :     0.002290
      f+1     :     0.000358
      f-1     :     0.000028
      f+2     :     0.000061
      f-2     :     0.000025
      f+3     :     0.000304
      f-3     :     0.000443
  5 H s       :     0.657113  s :     0.657113
      pz      :     0.085680  p :     0.162021
      px      :     0.031316
      py      :     0.045025
  6 H s       :     0.649324  s :     0.649324
      pz      :     0.029581  p :     0.161278
      px      :     0.082241
      py      :     0.049456
  7 O s       :     3.439475  s :     3.439475
      pz      :     1.408047  p :     4.792420
      px      :     1.594900
      py      :     1.789473
      dz2     :     0.014205  d :     0.030125
      dxz     :     0.002518
      dyz     :     0.003589
      dx2y2   :     0.002238
      dxy     :     0.007575
      f0      :     0.001005  f :     0.002263
      f+1     :     0.000044
      f-1     :     0.000261
      f+2     :     0.000103
      f-2     :     0.000312
      f+3     :     0.000003
      f-3     :     0.000535
  8 H s       :     0.663417  s :     0.663417
      pz      :     0.033516  p :     0.161593
      px      :     0.073382
      py      :     0.054694
  9 H s       :     0.669629  s :     0.669629
      pz      :     0.083099  p :     0.162301
      px      :     0.034637
      py      :     0.044565
 10 O s       :     3.420460  s :     3.420460
      pz      :     1.477597  p :     4.796465
      px      :     1.790624
      py      :     1.528245
      dz2     :     0.010395  d :     0.029014
      dxz     :     0.006676
      dyz     :     0.001649
      dx2y2   :     0.005591
      dxy     :     0.004702
      f0      :     0.000411  f :     0.002278
      f+1     :     0.000753
      f-1     :     0.000155
      f+2     :     0.000228
      f-2     :     0.000128
      f+3     :     0.000454
      f-3     :     0.000149
 11 H s       :     0.655170  s :     0.655170
      pz      :     0.077887  p :     0.161641
      px      :     0.051081
      py      :     0.032673
 12 H s       :     0.653516  s :     0.653516
      pz      :     0.034590  p :     0.161551
      px      :     0.048627
      py      :     0.078334
 13 O s       :     3.444685  s :     3.444685
      pz      :     1.636858  p :     4.821900
      px      :     1.548516
      py      :     1.636526
      dz2     :     0.004811  d :     0.028548
      dxz     :     0.011402
      dyz     :     0.004812
      dx2y2   :     0.000897
      dxy     :     0.006626
      f0      :     0.000173  f :     0.002128
      f+1     :     0.000604
      f-1     :     0.000098
      f+2     :     0.000255
      f-2     :     0.000478
      f+3     :     0.000285
      f-3     :     0.000235
 14 H s       :     0.671851  s :     0.671851
      pz      :     0.042630  p :     0.184767
      px      :     0.067259
      py      :     0.074877
 15 H s       :     0.671369  s :     0.671369
      pz      :     0.069560  p :     0.163627
      px      :     0.053926
      py      :     0.040141
 16 O s       :     3.420196  s :     3.420196
      pz      :     1.816571  p :     4.788972
      px      :     1.333646
      py      :     1.638755
      dz2     :     0.003091  d :     0.029281
      dxz     :     0.005319
      dyz     :     0.002775
      dx2y2   :     0.002877
      dxy     :     0.015219
      f0      :     0.000282  f :     0.002273
      f+1     :     0.000231
      f-1     :     0.000119
      f+2     :     0.000185
      f-2     :     0.000504
      f+3     :     0.000340
      f-3     :     0.000612
 17 H s       :     0.655355  s :     0.655355
      pz      :     0.046947  p :     0.162125
      px      :     0.050828
      py      :     0.064349
 18 H s       :     0.655744  s :     0.655744
      pz      :     0.050560  p :     0.162169
      px      :     0.067153
      py      :     0.044457
 19 O s       :     3.422837  s :     3.422837
      pz      :     1.776673  p :     4.817014
      px      :     1.383523
      py      :     1.656818
      dz2     :     0.003305  d :     0.027849
      dxz     :     0.004500
      dyz     :     0.003029
      dx2y2   :     0.000546
      dxy     :     0.016468
      f0      :     0.000263  f :     0.002152
      f+1     :     0.000229
      f-1     :     0.000178
      f+2     :     0.000112
      f-2     :     0.000513
      f+3     :     0.000190
      f-3     :     0.000667
 20 H s       :     0.667080  s :     0.667080
      pz      :     0.040125  p :     0.183763
      px      :     0.073501
      py      :     0.070138
 21 H s       :     0.660437  s :     0.660437
      pz      :     0.055435  p :     0.163411
      px      :     0.057780
      py      :     0.050196
 22 O s       :     3.421523  s :     3.421523
      pz      :     1.718502  p :     4.796067
      px      :     1.597020
      py      :     1.480544
      dz2     :     0.001914  d :     0.028994
      dxz     :     0.006815
      dyz     :     0.003687
      dx2y2   :     0.010702
      dxy     :     0.005876
      f0      :     0.000566  f :     0.002286
      f+1     :     0.000007
      f-1     :     0.000042
      f+2     :     0.000569
      f-2     :     0.000324
      f+3     :     0.000370
      f-3     :     0.000407
 23 H s       :     0.652921  s :     0.652921
      pz      :     0.047483  p :     0.161303
      px      :     0.037670
      py      :     0.076150
 24 H s       :     0.652442  s :     0.652442
      pz      :     0.051981  p :     0.161466
      px      :     0.073928
      py      :     0.035557


                      *****************************
                      * MAYER POPULATION ANALYSIS *
                      *****************************

  NA   - Mulliken gross atomic population
  ZA   - Total nuclear charge
  QA   - Mulliken gross atomic charge
  VA   - Mayer's total valence
  BVA  - Mayer's bonded valence
  FA   - Mayer's free valence

  ATOM       NA         ZA         QA         VA         BVA        FA
  0 K     18.2923    19.0000     0.7077     0.5799     0.5799     0.0000
  1 O      8.7132     8.0000    -0.7132     1.8218     1.8218    -0.0000
  2 H      0.6204     1.0000     0.3796     0.8737     0.8737    -0.0000
  3 H      0.6202     1.0000     0.3798     0.8726     0.8726     0.0000
  4 O      8.7171     8.0000    -0.7171     1.8149     1.8149     0.0000
  5 H      0.6250     1.0000     0.3750     0.8757     0.8757     0.0000
  6 H      0.6120     1.0000     0.3880     0.8662     0.8662     0.0000
  7 O      8.6976     8.0000    -0.6976     1.8340     1.8340    -0.0000
  8 H      0.6207     1.0000     0.3793     0.8801     0.8801     0.0000
  9 H      0.6430     1.0000     0.3570     0.9078     0.9078    -0.0000
 10 O      8.7156     8.0000    -0.7156     1.8136     1.8136     0.0000
 11 H      0.6209     1.0000     0.3791     0.8712     0.8712     0.0000
 12 H      0.6199     1.0000     0.3801     0.8712     0.8712     0.0000
 13 O      8.7247     8.0000    -0.7247     1.7956     1.7956    -0.0000
 14 H      0.6290     1.0000     0.3710     0.9103     0.9103    -0.0000
 15 H      0.6355     1.0000     0.3645     0.8956     0.8956     0.0000
 16 O      8.7056     8.0000    -0.7056     1.8333     1.8333     0.0000
 17 H      0.6184     1.0000     0.3816     0.8708     0.8708     0.0000
 18 H      0.6203     1.0000     0.3797     0.8722     0.8722     0.0000
 19 O      8.7227     8.0000    -0.7227     1.7852     1.7852     0.0000
 20 H      0.6408     1.0000     0.3592     0.9225     0.9225     0.0000
 21 H      0.6270     1.0000     0.3730     0.8760     0.8760     0.0000
 22 O      8.7193     8.0000    -0.7193     1.8122     1.8122    -0.0000
 23 H      0.6199     1.0000     0.3801     0.8705     0.8705    -0.0000
 24 H      0.6190     1.0000     0.3810     0.8703     0.8703     0.0000

  Mayer bond orders larger than 0.100000
B(  1-O ,  2-H ) :   0.8640 B(  1-O ,  3-H ) :   0.8634 B(  4-O ,  5-H ) :   0.8650 
B(  4-O ,  6-H ) :   0.8585 B(  7-O ,  8-H ) :   0.8613 B(  7-O ,  9-H ) :   0.8677 
B( 10-O , 11-H ) :   0.8629 B( 10-O , 12-H ) :   0.8632 B( 13-O , 14-H ) :   0.8184 
B( 13-O , 15-H ) :   0.8688 B( 16-O , 17-H ) :   0.8613 B( 16-O , 18-H ) :   0.8635 
B( 19-O , 20-H ) :   0.8200 B( 19-O , 21-H ) :   0.8678 B( 22-O , 23-H ) :   0.8635 
B( 22-O , 24-H ) :   0.8632 

-------
TIMINGS
-------

Total SCF time: 0 days 0 hours 0 min 21 sec 

Total time                  ....      21.407 sec
Sum of individual times     ....      20.841 sec  ( 97.4%)

Fock matrix formation       ....      18.982 sec  ( 88.7%)
  Split-RI-J                ....       1.933 sec  ( 10.2% of F)
  Chain of spheres X        ....      12.914 sec  ( 68.0% of F)
  XC integration            ....       1.099 sec  (  5.8% of F)
    Basis function eval.    ....       0.213 sec  ( 19.4% of XC)
    Density eval.           ....       0.224 sec  ( 20.4% of XC)
    XC-Functional eval.     ....       0.057 sec  (  5.2% of XC)
    XC-Potential eval.      ....       0.229 sec  ( 20.9% of XC)
Diagonalization             ....       0.426 sec  (  2.0%)
Density matrix formation    ....       0.031 sec  (  0.1%)
Population analysis         ....       0.038 sec  (  0.2%)
Initial guess               ....       0.117 sec  (  0.5%)
Orbital Transformation      ....       0.000 sec  (  0.0%)
Orbital Orthonormalization  ....       0.000 sec  (  0.0%)
DIIS solution               ....       0.190 sec  (  0.9%)
SOSCF solution              ....       0.204 sec  (  1.0%)
Grid generation             ....       0.853 sec  (  4.0%)

Maximum memory used throughout the entire SCF-calculation: 86.8 MB


-------------------------------------------------------------------------------
                          DFT DISPERSION CORRECTION                            
                                                                               
                              DFTD3 V3.1  Rev 1                                
                              USING zero damping                               
-------------------------------------------------------------------------------
The omegaB97X-D3 functional is recognized. Fit by Chai et al.
Active option DFTDOPT                   ...         3   

molecular C6(AA) [au] = 4895.439658 


            DFT-D V3
 parameters
 s6 scaling factor         :     1.0000 
 rs6 scaling factor        :     1.2810 
 s8 scaling factor         :     1.0000 
 rs8 scaling factor        :     1.0940 
 Damping factor alpha6     :    14.0000 
 Damping factor alpha8     :    16.0000 
 ad hoc parameters k1-k3   :    16.0000     1.3333    -4.0000 

 Edisp/kcal,au: -5.972928983439  -0.009518467200 
 E6   /kcal   :  -2.942263203 
 E8   /kcal   :  -3.030665781 
 % E8         :  50.740027028 

-------------------------   ----------------
Dispersion correction           -0.009518467
-------------------------   ----------------


-------------------------   --------------------
FINAL SINGLE POINT ENERGY     -1211.521054964603
-------------------------   --------------------


                            ***************************************
                            *     ORCA property calculations      *
                            ***************************************

                                    ---------------------
                                    Active property flags
                                    ---------------------
   (+) Dipole Moment


------------------------------------------------------------------------------
                       ORCA ELECTRIC PROPERTIES CALCULATION
------------------------------------------------------------------------------

Dipole Moment Calculation                       ... on
[...]
     36      -0.007698   0.000784   0.002120   0.000228   0.001477  -0.237292
     37       0.023966  -0.002286  -0.006132  -0.000771  -0.004123   0.669244
     38      -0.009275   0.000781   0.002124   0.000235   0.001316  -0.218890
     39       0.000125  -0.037802   0.015795   0.003756  -0.000440   0.000024
     40       0.000331   0.018612  -0.007220  -0.001724   0.000324   0.000003
     41       0.001207  -0.039526   0.016828   0.004064  -0.000231   0.000019
     42       0.011171   0.048111  -0.014642  -0.003523   0.003374   0.000066
     43      -0.010748  -0.065451   0.018798   0.005107  -0.002916  -0.000125
     44      -0.005233  -0.055106   0.019896   0.004474  -0.001068  -0.000025
     45      -0.012097   0.548819  -0.231337  -0.055646   0.004176  -0.000265
     46       0.005252  -0.231188   0.097603   0.021677  -0.001612   0.000099
     47      -0.014594   0.687130  -0.288735  -0.072608   0.005581  -0.000310
     48       0.001148   0.000198   0.000008  -0.001874  -0.046305  -0.000448
     49       0.003745   0.000058   0.000119   0.000330   0.007416   0.000105
     50      -0.001852  -0.000048  -0.000036   0.000160   0.004100   0.000030
     51       0.043101  -0.000041   0.001283   0.012678   0.289890   0.003233
     52      -0.038658   0.000262  -0.001239  -0.012869  -0.302093  -0.003303
     53       0.009111  -0.000259   0.000231   0.004250   0.102467   0.001066
     54      -0.061012  -0.003224  -0.001347   0.017041   0.444903   0.003997
     55      -0.021646  -0.001199  -0.000543   0.008340   0.189733   0.001742
     56       0.019752   0.001075   0.000306  -0.006726  -0.166895  -0.001548
     57       0.002112  -0.018923  -0.047350  -0.000571  -0.000047  -0.000253
     58      -0.000962   0.009709   0.020816   0.000069   0.000108   0.000315
     59       0.001152  -0.011111  -0.026376  -0.000239  -0.000086  -0.000207
     60      -0.002125   0.006876   0.059994   0.003224  -0.001007  -0.001912
     61      -0.003032   0.018347   0.078974   0.002482  -0.000662  -0.000649
     62       0.000489  -0.006500  -0.010979   0.000407  -0.000074  -0.000139
     63      -0.028937   0.292801   0.691244   0.005736   0.001693   0.006111
     64       0.017672  -0.173673  -0.412037  -0.003568  -0.000923  -0.003664
     65      -0.021377   0.181570   0.429622   0.003734   0.001833   0.003794
     66      -0.004615  -0.000072  -0.000063  -0.000055   0.000019   0.000102
     67      -0.002948  -0.000023  -0.000065   0.000113   0.000017  -0.000287
     68       0.000258   0.000004   0.000014   0.000086  -0.000001  -0.000169
     69       0.015729   0.000113   0.000327  -0.000421  -0.000121   0.000958
     70       0.073283   0.000670   0.001458  -0.001522  -0.000626   0.003843
     71       0.030771   0.000251   0.000589  -0.000604  -0.000268   0.001277
     72       0.057660   0.000627   0.000831   0.001582   0.000078  -0.002663
     73      -0.026287  -0.000283  -0.000370  -0.000613  -0.000037   0.000989
     74      -0.035008  -0.000411  -0.000510  -0.000886  -0.000040   0.001485
                 72         73         74    
      0      -0.000032   0.000026  -0.000014
      1       0.000029   0.000051   0.000001
      2       0.000037  -0.000013   0.000010
      3       0.000002  -0.000005   0.000016
      4      -0.000108   0.000475  -0.000098
      5      -0.000119   0.000491  -0.000135
      6       0.000466  -0.001576   0.000325
      7       0.001329  -0.006359   0.001162
      8       0.000290  -0.001385   0.000236
      9      -0.000555   0.002109  -0.000634
     10       0.000312  -0.001117   0.000339
     11       0.001721  -0.006318   0.001809
     12       0.000007  -0.008625  -0.045914
     13       0.000004  -0.002356  -0.012191
     14      -0.000043   0.008234   0.049554
     15      -0.000008   0.018024   0.090028
     16       0.000071   0.003468  -0.000154
     17       0.000639  -0.113311  -0.702945
     18      -0.000044   0.121457   0.640990
     19      -0.000038   0.035766   0.191971
     20       0.000013  -0.016339  -0.087187
     21       0.000519   0.023218  -0.006296
     22       0.000180   0.008170  -0.002389
     23       0.000838   0.038395  -0.009416
     24      -0.008326  -0.376109   0.102366
     25      -0.004788  -0.215633   0.058897
     26      -0.003593  -0.162143   0.044626
     27       0.000103   0.004802  -0.001620
     28       0.001855   0.085375  -0.020024
     29      -0.009890  -0.452325   0.106102
     30       0.000024  -0.000004   0.000001
     31      -0.000277  -0.000166  -0.000111
     32       0.000238   0.000206   0.000091
     33       0.001027   0.000987   0.000432
     34       0.000281   0.000318   0.000141
     35      -0.002432  -0.002294  -0.000931
     36      -0.001458  -0.000799  -0.000547
     37       0.004237   0.002228   0.001578
     38      -0.001158  -0.000721  -0.000539
     39       0.000001  -0.000125   0.000044
     40      -0.000006   0.000095  -0.000062
     41       0.000001  -0.000042  -0.000032
     42       0.000033   0.001534  -0.001085
     43      -0.000034  -0.001062   0.001061
     44       0.000002  -0.000128   0.000391
     45       0.000028   0.000958   0.000026
     46      -0.000014  -0.000359  -0.000058
     47       0.000045   0.001271  -0.000025
     48       0.001140   0.050587  -0.005577
     49      -0.000201  -0.009150   0.001065
     50      -0.000102  -0.004511   0.000502
     51      -0.007640  -0.339049   0.038614
     52       0.007821   0.346732  -0.039262
     53      -0.002460  -0.108278   0.011704
     54      -0.010480  -0.465513   0.050240
     55      -0.004581  -0.204803   0.022484
     56       0.004094   0.182562  -0.020172
     57      -0.000013   0.000329   0.002984
     58       0.000007  -0.000088  -0.001230
     59      -0.000009   0.000131   0.001585
     60      -0.000063  -0.001371  -0.004709
     61      -0.000031  -0.001263  -0.005874
     62       0.000004   0.000064   0.000824
     63       0.000289  -0.004111  -0.045064
     64      -0.000175   0.002424   0.026152
     65       0.000183  -0.001326  -0.023244
     66      -0.028214   0.000622  -0.000135
     67       0.052344  -0.001106   0.000200
     68       0.036815  -0.000784   0.000159
     69      -0.165860   0.003534  -0.000640
     70      -0.596988   0.012663  -0.002213
     71      -0.239271   0.005071  -0.000899
     72       0.614874  -0.013415   0.002854
     73      -0.234832   0.005120  -0.001085
     74      -0.346731   0.007591  -0.001653


-----------
IR SPECTRUM
-----------

 Mode   freq       eps      Int      T**2         TX        TY        TZ
       cm**-1   L/(mol*cm) km/mol    a.u.
----------------------------------------------------------------------------
 15:     28.04   0.001049    5.30  0.011681  ( 0.024791  0.059763  0.086575)
 16:     43.55   0.004174   21.09  0.029907  ( 0.020622 -0.169602 -0.026771)
 17:     54.73   0.010885   55.01  0.062064  (-0.097813  0.225540  0.040351)
 18:     68.52   0.001829    9.25  0.008332  ( 0.073200 -0.025641 -0.048130)
 19:     73.29   0.003300   16.68  0.014051  (-0.003797  0.117437 -0.015655)
 20:     82.31   0.011385   57.54  0.043165  ( 0.161169  0.005008 -0.131013)
 21:     98.74   0.006806   34.40  0.021510  ( 0.018594  0.124744 -0.074855)
 22:    116.52   0.001380    6.98  0.003697  (-0.026270  0.042845 -0.034216)
 23:    120.42   0.008009   40.48  0.020755  ( 0.079183 -0.080412 -0.089550)
 24:    135.27   0.001199    6.06  0.002767  (-0.030973  0.005565 -0.042146)
 25:    159.12   0.009063   45.80  0.017775  ( 0.028161 -0.100446  0.083020)
 26:    160.98   0.012370   62.51  0.023980  (-0.005956 -0.004376  0.154678)
 27:    166.78   0.006719   33.96  0.012573  ( 0.015868 -0.084167 -0.072365)
 28:    181.29   0.006884   34.79  0.011851  (-0.098839  0.045608  0.001138)
 29:    197.52   0.027432  138.63  0.043340  (-0.146007 -0.059269 -0.136048)
 30:    203.34   0.038743  195.79  0.059459  (-0.144639  0.183254  0.070405)
 31:    205.61   0.010569   53.41  0.016042  ( 0.098410  0.054123  0.058550)
 32:    221.50   0.027440  138.67  0.038659  (-0.133787  0.129505  0.063158)
 33:    239.20   0.009633   48.68  0.012568  (-0.045163  0.091696  0.046040)
 34:    251.01   0.014790   74.74  0.018387  (-0.094842  0.039987  0.088280)
 35:    258.27   0.097459  492.52  0.117760  ( 0.252697 -0.065188  0.222834)
 36:    260.86   0.020043  101.29  0.023977  ( 0.040389 -0.084374 -0.123395)
 37:    310.01   0.040024  202.27  0.040289  (-0.149129  0.071007 -0.114051)
 38:    312.42   0.059082  298.58  0.059015  ( 0.108642  0.216709 -0.015783)
 39:    336.88   0.043358  219.12  0.040164  (-0.066649  0.182963  0.047402)
 40:    354.33   0.025180  127.25  0.022176  ( 0.065557 -0.064679  0.117027)
 41:    355.67   0.006155   31.11  0.005401  ( 0.030857 -0.006805 -0.066349)
 42:    377.32   0.020274  102.46  0.016768  ( 0.024225 -0.047952  0.117819)
 43:    390.07   0.014276   72.15  0.011421  ( 0.027644 -0.094024 -0.042622)
 44:    418.96   0.033435  168.97  0.024904  ( 0.152392  0.033142  0.024125)
 45:    450.37   0.083768  423.33  0.058043  (-0.031731  0.046493  0.234254)
 46:    503.00   0.037823  191.14  0.023466  ( 0.114752 -0.101477  0.000227)
 47:    543.82   0.009046   45.72  0.005191  ( 0.067316  0.019394 -0.016836)
 48:    585.90   0.059522  300.80  0.031703  ( 0.067406  0.142735  0.082377)
 49:    681.55   0.013812   69.80  0.006324  (-0.060369  0.031827  0.040827)
 50:    849.34   0.049431  249.80  0.018162  (-0.094002 -0.071868  0.064502)
 51:   1597.09   0.039037  197.28  0.007628  ( 0.058225  0.056596 -0.032162)
 52:   1607.31   0.029390  148.53  0.005706  (-0.058624  0.033574  0.033796)
 53:   1612.20   0.021550  108.91  0.004171  ( 0.043002  0.047915  0.005132)
 54:   1623.65   0.011371   57.46  0.002185  (-0.010276  0.036796 -0.026943)
 55:   1637.30   0.022844  115.44  0.004354  (-0.012780 -0.056996 -0.030695)
 56:   1640.48   0.027328  138.11  0.005199  ( 0.035069 -0.007075  0.062599)
 57:   1644.24   0.040433  204.33  0.007674  ( 0.014475  0.050365 -0.070198)
 58:   1656.98   0.005230   26.43  0.000985  (-0.022980 -0.020973  0.004121)
 59:   3516.70   0.136103  687.81  0.012077  ( 0.003819 -0.105071 -0.031984)
 60:   3569.14   0.159905  808.09  0.013981  ( 0.116681  0.007520 -0.017609)
 61:   3826.27   0.006299   31.83  0.000514  ( 0.012997  0.012087 -0.014096)
 62:   3829.80   0.003488   17.63  0.000284  (-0.006578  0.015460 -0.001382)
 63:   3833.00   0.007859   39.72  0.000640  (-0.015254  0.013250  0.015218)
 64:   3835.16   0.016543   83.60  0.001346  ( 0.024284  0.025410 -0.010521)
 65:   3838.40   0.007350   37.14  0.000598  (-0.019194 -0.014522  0.004268)
 66:   3840.29   0.006431   32.50  0.000523  ( 0.012001 -0.000302  0.019454)
 67:   3884.53   0.033770  170.66  0.002713  ( 0.041191 -0.023528  0.021510)
 68:   3887.29   0.009472   47.87  0.000760  ( 0.025587  0.006504  0.007962)
 69:   3912.99   0.027223  137.58  0.002171  (-0.002104 -0.030001 -0.035589)
 70:   3916.10   0.015758   79.63  0.001256  ( 0.013633 -0.010210 -0.031074)
 71:   3917.44   0.028098  141.99  0.002238  ( 0.002299  0.032190 -0.034594)
 72:   3920.27   0.026831  135.59  0.002136  ( 0.017461 -0.034546 -0.025250)
 73:   3921.05   0.035384  178.81  0.002816  (-0.044471  0.003572 -0.028735)
 74:   3923.72   0.028419  143.62  0.002260  ( 0.038879  0.008940 -0.025860)

* The epsilon (eps) is given for a Dirac delta lineshape.
** The dipole moment derivative (T) already includes vibrational overlap.

The first frequency considered to be a vibration is 15
The total number of vibrations considered is 60


--------------------------
THERMOCHEMISTRY AT 298.15K
--------------------------

Temperature         ... 298.15 K
Pressure            ... 1.00 atm
Total Mass          ... 183.22 AMU

Throughout the following assumptions are being made:
  (1) The electronic state is orbitally nondegenerate
  (2) There are no thermally accessible electronically excited states
  (3) Hindered rotations indicated by low frequency modes are not
      treated as such but are treated as vibrations and this may
      cause some error
  (4) All equations used are the standard statistical mechanics
      equations for an ideal gas
  (5) All vibrations are strictly harmonic

freq.      28.04  E(vib)   ...       0.55 
freq.      43.55  E(vib)   ...       0.53 
freq.      54.73  E(vib)   ...       0.52 
freq.      68.52  E(vib)   ...       0.50 
freq.      73.29  E(vib)   ...       0.49 
freq.      82.31  E(vib)   ...       0.48 
freq.      98.74  E(vib)   ...       0.46 
freq.     116.52  E(vib)   ...       0.44 
freq.     120.42  E(vib)   ...       0.44 
freq.     135.27  E(vib)   ...       0.42 
freq.     159.12  E(vib)   ...       0.39 
freq.     160.98  E(vib)   ...       0.39 
freq.     166.78  E(vib)   ...       0.39 
freq.     181.29  E(vib)   ...       0.37 
freq.     197.52  E(vib)   ...       0.35 
freq.     203.34  E(vib)   ...       0.35 
freq.     205.61  E(vib)   ...       0.35 
freq.     221.50  E(vib)   ...       0.33 
freq.     239.20  E(vib)   ...       0.31 
freq.     251.01  E(vib)   ...       0.30 
freq.     258.27  E(vib)   ...       0.30 
freq.     260.86  E(vib)   ...       0.30 
freq.     310.01  E(vib)   ...       0.26 
freq.     312.42  E(vib)   ...       0.25 
freq.     336.88  E(vib)   ...       0.24 
freq.     354.33  E(vib)   ...       0.22 
freq.     355.67  E(vib)   ...       0.22 
freq.     377.32  E(vib)   ...       0.21 
freq.     390.07  E(vib)   ...       0.20 
freq.     418.96  E(vib)   ...       0.18 
freq.     450.37  E(vib)   ...       0.17 
freq.     503.00  E(vib)   ...       0.14 
freq.     543.82  E(vib)   ...       0.12 
freq.     585.90  E(vib)   ...       0.11 
freq.     681.55  E(vib)   ...       0.08 
freq.     849.34  E(vib)   ...       0.04 
freq.    1597.09  E(vib)   ...       0.00 
freq.    1607.31  E(vib)   ...       0.00 
freq.    1612.20  E(vib)   ...       0.00 
freq.    1623.65  E(vib)   ...       0.00 
freq.    1637.30  E(vib)   ...       0.00 
freq.    1640.48  E(vib)   ...       0.00 
freq.    1644.24  E(vib)   ...       0.00 
freq.    1656.98  E(vib)   ...       0.00 
freq.    3516.70  E(vib)   ...       0.00 
freq.    3569.14  E(vib)   ...       0.00 
freq.    3826.27  E(vib)   ...       0.00 
freq.    3829.80  E(vib)   ...       0.00 
freq.    3833.00  E(vib)   ...       0.00 
freq.    3835.16  E(vib)   ...       0.00 
freq.    3838.40  E(vib)   ...       0.00 
freq.    3840.29  E(vib)   ...       0.00 
freq.    3884.53  E(vib)   ...       0.00 
freq.    3887.29  E(vib)   ...       0.00 
freq.    3912.99  E(vib)   ...       0.00 
freq.    3916.10  E(vib)   ...       0.00 
freq.    3917.44  E(vib)   ...       0.00 
freq.    3920.27  E(vib)   ...       0.00 
freq.    3921.05  E(vib)   ...       0.00 
freq.    3923.72  E(vib)   ...       0.00 

------------
INNER ENERGY
------------

The inner energy is: U= E(el) + E(ZPE) + E(vib) + E(rot) + E(trans)
    E(el)   - is the total energy from the electronic structure calculation
              = E(kin-el) + E(nuc-el) + E(el-el) + E(nuc-nuc)
    E(ZPE)  - the the zero temperature vibrational energy from the frequency calculation
    E(vib)  - the the finite temperature correction to E(ZPE) due to population
              of excited vibrational states
    E(rot)  - is the rotational thermal energy
    E(trans)- is the translational thermal energy

Summary of contributions to the inner energy U:
Electronic energy                ...  -1211.52105496 Eh
Zero point energy                ...      0.19179406 Eh     120.35 kcal/mol
Thermal vibrational correction   ...      0.01820390 Eh      11.42 kcal/mol
Thermal rotational correction    ...      0.00141627 Eh       0.89 kcal/mol
Thermal translational correction ...      0.00141627 Eh       0.89 kcal/mol
-----------------------------------------------------------------------
Total thermal energy                  -1211.30822446 Eh


Summary of corrections to the electronic energy:
(perhaps to be used in another calculation)
Total thermal correction                  0.02103645 Eh      13.20 kcal/mol
Non-thermal (ZPE) correction              0.19179406 Eh     120.35 kcal/mol
-----------------------------------------------------------------------
Total correction                          0.21283051 Eh     133.55 kcal/mol


--------
ENTHALPY
--------

The enthalpy is H = U + kB*T
                kB is Boltzmann's constant
Total free energy                 ...  -1211.30822446 Eh 
Thermal Enthalpy correction       ...      0.00094421 Eh       0.59 kcal/mol
-----------------------------------------------------------------------
Total Enthalpy                    ...  -1211.30728025 Eh


Note: Only C1 symmetry has been detected, increase convergence thresholds 
      if your molecule has a higher symmetry. Symmetry factor of 1.0 is   
      used for the rotational entropy correction. 
 

Note: Rotational entropy computed according to Herzberg 
Infrared and Raman Spectra, Chapter V,1, Van Nostrand Reinhold, 1945 
Point Group:  C1, Symmetry Number:   1  
Rotational constants in cm-1:     0.026153     0.015932     0.015327 

Vibrational entropy computed according to the QRRHO of S. Grimme
Chem.Eur.J. 2012 18 9955


-------
ENTROPY
-------

The entropy contributions are T*S = T*(S(el)+S(vib)+S(rot)+S(trans))
     S(el)   - electronic entropy
     S(vib)  - vibrational entropy
     S(rot)  - rotational entropy
     S(trans)- translational entropy
The entropies will be listed as multiplied by the temperature to get
units of energy

Electronic entropy                ...      0.00000000 Eh      0.00 kcal/mol
Vibrational entropy               ...      0.03356016 Eh     21.06 kcal/mol
Rotational entropy                ...      0.01515765 Eh      9.51 kcal/mol
Translational entropy             ...      0.01972882 Eh     12.38 kcal/mol
-----------------------------------------------------------------------
Final entropy term                ...      0.06844664 Eh     42.95 kcal/mol

In case the symmetry of your molecule has not been determined correctly
or in case you have a reason to use a different symmetry number we print 
out the resulting rotational entropy values for sn=1,12 :
 --------------------------------------------------------
|  sn= 1 | S(rot)=       0.01515765 Eh      9.51 kcal/mol|
|  sn= 2 | S(rot)=       0.01450320 Eh      9.10 kcal/mol|
|  sn= 3 | S(rot)=       0.01412036 Eh      8.86 kcal/mol|
|  sn= 4 | S(rot)=       0.01384874 Eh      8.69 kcal/mol|
|  sn= 5 | S(rot)=       0.01363805 Eh      8.56 kcal/mol|
|  sn= 6 | S(rot)=       0.01346591 Eh      8.45 kcal/mol|
|  sn= 7 | S(rot)=       0.01332036 Eh      8.36 kcal/mol|
|  sn= 8 | S(rot)=       0.01319428 Eh      8.28 kcal/mol|
|  sn= 9 | S(rot)=       0.01308307 Eh      8.21 kcal/mol|
|  sn=10 | S(rot)=       0.01298359 Eh      8.15 kcal/mol|
|  sn=11 | S(rot)=       0.01289360 Eh      8.09 kcal/mol|
|  sn=12 | S(rot)=       0.01281145 Eh      8.04 kcal/mol|
 --------------------------------------------------------


-------------------
GIBBS FREE ENERGY
-------------------

The Gibbs free energy is G = H - T*S

Total enthalpy                    ...  -1211.30728025 Eh 
Total entropy correction          ...     -0.06844664 Eh    -42.95 kcal/mol
-----------------------------------------------------------------------
Final Gibbs free energy         ...  -1211.37572688 Eh

For completeness - the Gibbs free energy minus the electronic energy
G-E(el)                           ...      0.14532808 Eh     91.19 kcal/mol


Timings for individual modules:

Sum of individual times         ...      144.248 sec (=   2.404 min)
GTO integral calculation        ...        0.479 sec (=   0.008 min)   0.3 %
SCF iterations                  ...       21.610 sec (=   0.360 min)  15.0 %
Analytical frequency calculation...      122.158 sec (=   2.036 min)  84.7 %
                             ****ORCA TERMINATED NORMALLY****
TOTAL RUN TIME: 0 days 0 hours 2 minutes 24 seconds 620 msec
