
                                 *****************
                                 * O   R   C   A *
                                 *****************

                                            #,                                       
                                            ###                                      
                                            ####                                     
                                            #####                                    
                                            ######                                   
                                           ########,                                 
                                     ,,################,,,,,                         
                               ,,#################################,,                 
                          ,,##########################################,,             
                       ,#########################################, ''#####,          
                    ,#############################################,,   '####,        
                  ,##################################################,,,,####,       
                ,###########''''           ''''###############################       
              ,#####''   ,,,,##########,,,,          '''####'''          '####       
            ,##' ,,,,###########################,,,                        '##       
           ' ,,###''''                  '''############,,,                           
         ,,##''                                '''############,,,,        ,,,,,,###''
      ,#''                                            '''#######################'''  
     '                                                          ''''####''''         
             ,#######,   #######,   ,#######,      ##                                
            ,#'     '#,  ##    ##  ,#'     '#,    #''#        ######   ,####,        
            ##       ##  ##   ,#'  ##            #'  '#       #        #'  '#        
            ##       ##  #######   ##           ,######,      #####,   #    #        
            '#,     ,#'  ##    ##  '#,     ,#' ,#      #,         ##   #,  ,#        
             '#######'   ##     ##  '#######'  #'      '#     #####' # '####'        



                  #######################################################
                  #                        -***-                        #
                  #          Department of theory and spectroscopy      #
                  #    Directorship and core code : Frank Neese         #
                  #        Max Planck Institute fuer Kohlenforschung    #
                  #                Kaiser Wilhelm Platz 1               #
                  #                 D-45470 Muelheim/Ruhr               #
                  #                      Germany                        #
                  #                                                     #
                  #                  All rights reserved                #
                  #                        -***-                        #
                  #######################################################


                         Program Version 5.0.4 -  RELEASE  -


 With contributions from (in alphabetic order):
   Daniel Aravena         : Magnetic Suceptibility
   Michael Atanasov       : Ab Initio Ligand Field Theory (pilot matlab implementation)
   Alexander A. Auer      : GIAO ZORA, VPT2 properties, NMR spectrum
   Ute Becker             : Parallelization
   Giovanni Bistoni       : ED, misc. LED, open-shell LED, HFLD
   Martin Brehm           : Molecular dynamics
   Dmytro Bykov           : SCF Hessian
   Vijay G. Chilkuri      : MRCI spin determinant printing, contributions to CSF-ICE
   Dipayan Datta          : RHF DLPNO-CCSD density
   Achintya Kumar Dutta   : EOM-CC, STEOM-CC
   Dmitry Ganyushin       : Spin-Orbit,Spin-Spin,Magnetic field MRCI
   Miquel Garcia          : C-PCM and meta-GGA Hessian, CC/C-PCM, Gaussian charge scheme
   Yang Guo               : DLPNO-NEVPT2, F12-NEVPT2, CIM, IAO-localization
   Andreas Hansen         : Spin unrestricted coupled pair/coupled cluster methods
   Benjamin Helmich-Paris : MC-RPA, TRAH-SCF, COSX integrals
   Lee Huntington         : MR-EOM, pCC
   Robert Izsak           : Overlap fitted RIJCOSX, COSX-SCS-MP3, EOM
   Marcus Kettner         : VPT2
   Christian Kollmar      : KDIIS, OOCD, Brueckner-CCSD(T), CCSD density, CASPT2, CASPT2-K
   Simone Kossmann        : Meta GGA functionals, TD-DFT gradient, OOMP2, MP2 Hessian
   Martin Krupicka        : Initial AUTO-CI
   Lucas Lang             : DCDCAS
   Marvin Lechner         : AUTO-CI (C++ implementation), FIC-MRCC
   Dagmar Lenk            : GEPOL surface, SMD
   Dimitrios Liakos       : Extrapolation schemes; Compound Job, initial MDCI parallelization
   Dimitrios Manganas     : Further ROCIS development; embedding schemes
   Dimitrios Pantazis     : SARC Basis sets
   Anastasios Papadopoulos: AUTO-CI, single reference methods and gradients
   Taras Petrenko         : DFT Hessian,TD-DFT gradient, ASA, ECA, R-Raman, ABS, FL, XAS/XES, NRVS
   Peter Pinski           : DLPNO-MP2, DLPNO-MP2 Gradient
   Christoph Reimann      : Effective Core Potentials
   Marius Retegan         : Local ZFS, SOC
   Christoph Riplinger    : Optimizer, TS searches, QM/MM, DLPNO-CCSD(T), (RO)-DLPNO pert. Triples
   Tobias Risthaus        : Range-separated hybrids, TD-DFT gradient, RPA, STAB
   Michael Roemelt        : Original ROCIS implementation
   Masaaki Saitow         : Open-shell DLPNO-CCSD energy and density
   Barbara Sandhoefer     : DKH picture change effects
   Avijit Sen             : IP-ROCIS
   Kantharuban Sivalingam : CASSCF convergence, NEVPT2, FIC-MRCI
   Bernardo de Souza      : ESD, SOC TD-DFT
   Georgi Stoychev        : AutoAux, RI-MP2 NMR, DLPNO-MP2 response
   Willem Van den Heuvel  : Paramagnetic NMR
   Boris Wezisla          : Elementary symmetry handling
   Frank Wennmohs         : Technical directorship


 We gratefully acknowledge several colleagues who have allowed us to
 interface, adapt or use parts of their codes:
   Stefan Grimme, W. Hujo, H. Kruse, P. Pracht,  : VdW corrections, initial TS optimization,
                  C. Bannwarth, S. Ehlert          DFT functionals, gCP, sTDA/sTD-DF
   Ed Valeev, F. Pavosevic, A. Kumar             : LibInt (2-el integral package), F12 methods
   Garnet Chan, S. Sharma, J. Yang, R. Olivares  : DMRG
   Ulf Ekstrom                                   : XCFun DFT Library
   Mihaly Kallay                                 : mrcc  (arbitrary order and MRCC methods)
   Jiri Pittner, Ondrej Demel                    : Mk-CCSD
   Frank Weinhold                                : gennbo (NPA and NBO analysis)
   Christopher J. Cramer and Donald G. Truhlar   : smd solvation model
   Lars Goerigk                                  : TD-DFT with DH, B97 family of functionals
   V. Asgeirsson, H. Jonsson                     : NEB implementation
   FAccTs GmbH                                   : IRC, NEB, NEB-TS, DLPNO-Multilevel, CI-OPT
                                                   MM, QMMM, 2- and 3-layer-ONIOM, Crystal-QMMM,
                                                   LR-CPCM, SF, NACMEs, symmetry and pop. for TD-DFT,
                                                   nearIR, NL-DFT gradient (VV10), updates on ESD,
                                                   ML-optimized integration grids
   S Lehtola, MJT Oliveira, MAL Marques          : LibXC Library
   Liviu Ungur et al                             : ANISO software


 Your calculation uses the libint2 library for the computation of 2-el integrals
 For citations please refer to: http://libint.valeyev.net

 Your ORCA version has been built with support for libXC version: 5.1.0
 For citations please refer to: https://tddft.org/programs/libxc/

 This ORCA versions uses:
   CBLAS   interface :  Fast vector & matrix operations
   LAPACKE interface :  Fast linear algebra routines
   SCALAPACK package :  Parallel linear algebra routines
   Shared memory     :  Shared parallel matrices
   BLAS/LAPACK       :  OpenBLAS 0.3.15  USE64BITINT DYNAMIC_ARCH NO_AFFINITY Zen SINGLE_THREADED
        Core in use  :  Zen
   Copyright (c) 2011-2014, The OpenBLAS Project


================================================================================

----- Orbital basis set information -----
Your calculation utilizes the basis: 6-31++G(2d,2p)
   H-He, Li-Ne : W. J. Hehre, R. Ditchfield and J.A. Pople, J. Chem. Phys. 56, 2257 (1972).
                 Note: He and Ne are unpublished basis sets taken from the Gaussian program.
                 Note: Li and B from J. D. Dill and J. A. Pople, J. Chem. Phys. 62, 2921 (1975).
   Na - Ar     : M. M. Francl, W. J. Pietro, W. J. Hehre, J. S. Binkley, M. S. Gordon, 
                 D. J. DeFrees and J. A. Pople, J. Chem. Phys. 77, 3654 (1982).
   K - Zn      : V. A. Rassolov, J. A. Pople, M. A. Ratner, and T. L. Windus, J. Chem. Phys. 109, 1223 (1998).
   Additional Pol./Diff. from the 6-311G equivalent.

----- AuxJ basis set information -----
Your calculation utilizes the auxiliary basis: def2/J
   F. Weigend, Phys. Chem. Chem. Phys. 8, 1057 (2006).

================================================================================
                                        WARNINGS
                       Please study these warnings very carefully!
================================================================================

WARNING: Old DensityContainer found on disk!
         Will remove this file - 
         If you want to keep old densities, please start your calculation with a different basename. 


INFO   : the flag for use of the SHARK integral package has been found!

================================================================================
                                       INPUT FILE
================================================================================
NAME = betulin_acetometrille_freq.inp
|  1> # avogadro generated ORCA file
|  2> # C34H56N2O2 | Frequencies | B3LYP 6-31++G(2d,2p) CPCM(Acetonitrile)
|  3> # 
|  4> ! Freq B3LYP 6-31++G(2d,2p) CPCM(Acetonitrile)
|  5> 
|  6> %maxcore 3072
|  7> 
|  8> %pal
|  9>    nprocs 8
| 10> end
| 11> 
| 12> * xyz 0 1
| 13>    O     -5.859299    1.324818    1.158588
| 14>    O      4.879553   -2.985003    1.065324
| 15>    C     -0.419146   -0.936877    0.029065
| 16>    C      1.007801   -0.765737   -0.700670
| 17>    C     -1.094940    0.482370    0.092907
| 18>    C      1.890725    0.205500    0.174019
| 19>    C     -2.627840    0.563353    0.468925
| 20>    C      3.337687    0.261976   -0.353334
| 21>    C      4.017744   -1.139542   -0.367900
| 22>    C     -3.390707   -0.452826   -0.440242
| 23>    C      1.726272   -2.140039   -0.868004
| 24>    C     -1.337812   -1.901900   -0.761621
| 25>    C     -0.215439    1.464734    0.890799
| 26>    C      1.211299    1.576435    0.329366
| 27>    C      3.208006   -2.056080   -1.294073
| 28>    C     -2.804764   -1.867158   -0.313203
| 29>    C      4.388958    1.186190    0.323942
| 30>    C     -4.965236   -0.413102   -0.381567
| 31>    C     -3.127529    2.008721    0.104705
| 32>    C      5.431101   -0.771403   -0.855537
| 33>    C     -0.233005   -1.555413    1.440726
| 34>    C      0.847639   -0.195463   -2.137671
| 35>    C      5.761359    0.553842   -0.122953
| 36>    C     -2.889810    0.334435    1.975269
| 37>    C     -5.485425    1.052669   -0.204867
| 38>    C     -4.444376    2.059111   -0.693575
| 39>    C      4.130985   -1.760805    1.049503
| 40>    C      4.342922    2.668518    0.001730
| 41>    C     -5.487974   -0.893005   -1.758460
| 42>    C     -5.569493   -1.347795    0.685278
| 43>    C      4.219172    3.083781   -1.444846
| 44>    C      4.471094    3.585349    0.972346
| 45>    H     -1.092728    0.842367   -0.940622
| 46>    H      1.941021   -0.223183    1.179471
| 47>    H      3.299374    0.568144   -1.405164
| 48>    H     -3.146072   -0.132209   -1.463172
| 49>    H      1.185179   -2.735821   -1.610925
| 50>    H      1.675703   -2.707125    0.062810
| 51>    H     -0.955389   -2.925193   -0.674397
| 52>    H     -1.318214   -1.654228   -1.827077
| 53>    H     -0.158883    1.159809    1.940702
| 54>    H     -0.672093    2.459655    0.892594
| 55>    H      1.186635    2.098853   -0.634100
| 56>    H      1.808267    2.202822    0.998190
| 57>    H      3.630498   -3.067636   -1.310486
| 58>    H      3.292987   -1.677895   -2.319324
| 59>    H     -3.369072   -2.565176   -0.940506
| 60>    H     -2.907752   -2.237996    0.710824
| 61>    H      4.298780    1.093662    1.411251
| 62>    H     -2.367706    2.531202   -0.485001
| 63>    H     -3.246106    2.591699    1.022896
| 64>    H      5.408495   -0.611836   -1.939695
| 65>    H      6.165568   -1.555883   -0.655019
| 66>    H     -1.191443   -1.846931    1.868664
| 67>    H      0.370567   -2.464307    1.396981
| 68>    H      0.239862   -0.881953    2.155744
| 69>    H      1.813121   -0.146385   -2.643921
| 70>    H      0.212445   -0.842499   -2.746895
| 71>    H      0.424826    0.808118   -2.171153
| 72>    H      6.385717    0.379014    0.757794
| 73>    H      6.320700    1.235458   -0.768939
| 74>    H     -3.914195    0.609083    2.225872
| 75>    H     -2.734297   -0.698675    2.288102
| 76>    H     -2.226879    0.963082    2.577227
| 77>    H     -6.392235    1.154658   -0.816091
| 78>    H     -4.864353    3.070799   -0.644457
| 79>    H     -4.250783    1.863654   -1.754943
| 80>    H      3.144835   -1.935582    1.487081
| 81>    H      4.662361   -1.079606    1.718544
| 82>    H     -6.581535   -0.958223   -1.752701
| 83>    H     -5.195834   -0.205044   -2.559290
| 84>    H     -5.096092   -1.882795   -2.009522
| 85>    H     -6.659722   -1.247107    0.698546
| 86>    H     -5.338510   -2.391150    0.451738
| 87>    H     -5.205223   -1.136225    1.690523
| 88>    H     -6.378349    2.146553    1.162057
| 89>    H      4.288326   -3.733087    0.880139
| 90>    H      3.230737    2.831129   -1.843830
| 91>    H      4.365025    4.161179   -1.557609
| 92>    H      4.952712    2.569309   -2.076380
| 93>    H      4.494749    4.649061    0.751621
| 94>    H      4.550642    3.297181    2.017183
| 95>    C      2.262091   -7.826969    0.341960
| 96>    C      2.873000   -6.517124    0.521442
| 97>    N      3.358682   -5.475589    0.663667
| 98>    H      2.356713   -8.406556    1.263533
| 99>    H      2.763715   -8.357538   -0.471339
|100>    H      1.203610   -7.708310    0.097157
|101>    C     -9.387348    5.619397    1.404088
|102>    C     -8.388976    4.561628    1.328172
|103>    N     -7.595829    3.719891    1.268332
|104>    H    -10.381026    5.178641    1.516804
|105>    H     -9.359140    6.217290    0.489603
|106>    H     -9.177636    6.262545    2.262407
|107> *
|108> 
|109> 
|110> 
|111>                          ****END OF INPUT****
================================================================================

                       ****************************
                       * Single Point Calculation *
                       ****************************

---------------------------------
CARTESIAN COORDINATES (ANGSTROEM)
---------------------------------
  O     -5.859299    1.324818    1.158588
  O      4.879553   -2.985003    1.065324
  C     -0.419146   -0.936877    0.029065
  C      1.007801   -0.765737   -0.700670
  C     -1.094940    0.482370    0.092907
  C      1.890725    0.205500    0.174019
  C     -2.627840    0.563353    0.468925
  C      3.337687    0.261976   -0.353334
  C      4.017744   -1.139542   -0.367900
  C     -3.390707   -0.452826   -0.440242
  C      1.726272   -2.140039   -0.868004
  C     -1.337812   -1.901900   -0.761621
  C     -0.215439    1.464734    0.890799
  C      1.211299    1.576435    0.329366
  C      3.208006   -2.056080   -1.294073
  C     -2.804764   -1.867158   -0.313203
  C      4.388958    1.186190    0.323942
  C     -4.965236   -0.413102   -0.381567
  C     -3.127529    2.008721    0.104705
  C      5.431101   -0.771403   -0.855537
  C     -0.233005   -1.555413    1.440726
  C      0.847639   -0.195463   -2.137671
  C      5.761359    0.553842   -0.122953
  C     -2.889810    0.334435    1.975269
  C     -5.485425    1.052669   -0.204867
  C     -4.444376    2.059111   -0.693575
  C      4.130985   -1.760805    1.049503
  C      4.342922    2.668518    0.001730
  C     -5.487974   -0.893005   -1.758460
  C     -5.569493   -1.347795    0.685278
  C      4.219172    3.083781   -1.444846
  C      4.471094    3.585349    0.972346
  H     -1.092728    0.842367   -0.940622
  H      1.941021   -0.223183    1.179471
  H      3.299374    0.568144   -1.405164
  H     -3.146072   -0.132209   -1.463172
  H      1.185179   -2.735821   -1.610925
  H      1.675703   -2.707125    0.062810
  H     -0.955389   -2.925193   -0.674397
  H     -1.318214   -1.654228   -1.827077
  H     -0.158883    1.159809    1.940702
  H     -0.672093    2.459655    0.892594
  H      1.186635    2.098853   -0.634100
  H      1.808267    2.202822    0.998190
  H      3.630498   -3.067636   -1.310486
  H      3.292987   -1.677895   -2.319324
  H     -3.369072   -2.565176   -0.940506
  H     -2.907752   -2.237996    0.710824
  H      4.298780    1.093662    1.411251
  H     -2.367706    2.531202   -0.485001
  H     -3.246106    2.591699    1.022896
  H      5.408495   -0.611836   -1.939695
  H      6.165568   -1.555883   -0.655019
  H     -1.191443   -1.846931    1.868664
  H      0.370567   -2.464307    1.396981
  H      0.239862   -0.881953    2.155744
  H      1.813121   -0.146385   -2.643921
  H      0.212445   -0.842499   -2.746895
  H      0.424826    0.808118   -2.171153
  H      6.385717    0.379014    0.757794
  H      6.320700    1.235458   -0.768939
  H     -3.914195    0.609083    2.225872
  H     -2.734297   -0.698675    2.288102
  H     -2.226879    0.963082    2.577227
  H     -6.392235    1.154658   -0.816091
  H     -4.864353    3.070799   -0.644457
  H     -4.250783    1.863654   -1.754943
  H      3.144835   -1.935582    1.487081
  H      4.662361   -1.079606    1.718544
  H     -6.581535   -0.958223   -1.752701
  H     -5.195834   -0.205044   -2.559290
  H     -5.096092   -1.882795   -2.009522
  H     -6.659722   -1.247107    0.698546
  H     -5.338510   -2.391150    0.451738
  H     -5.205223   -1.136225    1.690523
  H     -6.378349    2.146553    1.162057
  H      4.288326   -3.733087    0.880139
  H      3.230737    2.831129   -1.843830
  H      4.365025    4.161179   -1.557609
  H      4.952712    2.569309   -2.076380
  H      4.494749    4.649061    0.751621
  H      4.550642    3.297181    2.017183
  C      2.262091   -7.826969    0.341960
  C      2.873000   -6.517124    0.521442
  N      3.358682   -5.475589    0.663667
  H      2.356713   -8.406556    1.263533
  H      2.763715   -8.357538   -0.471339
  H      1.203610   -7.708310    0.097157
  C     -9.387348    5.619397    1.404088
  C     -8.388976    4.561628    1.328172
  N     -7.595829    3.719891    1.268332
  H    -10.381026    5.178641    1.516804
  H     -9.359140    6.217290    0.489603
  H     -9.177636    6.262545    2.262407

----------------------------
CARTESIAN COORDINATES (A.U.)
----------------------------
  NO LB      ZA    FRAG     MASS         X           Y           Z
   0 O     8.0000    0    15.999  -11.072470    2.503543    2.189414
   1 O     8.0000    0    15.999    9.221019   -5.640838    2.013171
   2 C     6.0000    0    12.011   -0.792071   -1.770441    0.054925
   3 C     6.0000    0    12.011    1.904468   -1.447033   -1.324074
   4 C     6.0000    0    12.011   -2.069137    0.911547    0.175569
   5 C     6.0000    0    12.011    3.572952    0.388339    0.328848
   6 C     6.0000    0    12.011   -4.965898    1.064583    0.886140
   7 C     6.0000    0    12.011    6.307314    0.495063   -0.667704
   8 C     6.0000    0    12.011    7.592436   -2.153422   -0.695230
   9 C     6.0000    0    12.011   -6.407508   -0.855717   -0.831937
  10 C     6.0000    0    12.011    3.262181   -4.044088   -1.640290
  11 C     6.0000    0    12.011   -2.528098   -3.594070   -1.439255
  12 C     6.0000    0    12.011   -0.407121    2.767946    1.683366
  13 C     6.0000    0    12.011    2.289023    2.979030    0.622412
  14 C     6.0000    0    12.011    6.062253   -3.885428   -2.445444
  15 C     6.0000    0    12.011   -5.300236   -3.528417   -0.591868
  16 C     6.0000    0    12.011    8.293929    2.241574    0.612162
  17 C     6.0000    0    12.011   -9.382936   -0.780650   -0.721057
  18 C     6.0000    0    12.011   -5.910173    3.795933    0.197864
  19 C     6.0000    0    12.011   10.263293   -1.457740   -1.616731
  20 C     6.0000    0    12.011   -0.440316   -2.939305    2.722578
  21 C     6.0000    0    12.011    1.601806   -0.369372   -4.039613
  22 C     6.0000    0    12.011   10.887391    1.046610   -0.232347
  23 C     6.0000    0    12.011   -5.460949    0.631991    3.732717
  24 C     6.0000    0    12.011  -10.365951    1.989256   -0.387143
  25 C     6.0000    0    12.011   -8.398653    3.891156   -1.310667
  26 C     6.0000    0    12.011    7.806430   -3.327439    1.983273
  27 C     6.0000    0    12.011    8.206933    5.042768    0.003269
  28 C     6.0000    0    12.011  -10.370768   -1.687535   -3.323008
  29 C     6.0000    0    12.011  -10.524816   -2.546963    1.294988
  30 C     6.0000    0    12.011    7.973080    5.827502   -2.730363
  31 C     6.0000    0    12.011    8.449143    6.775328    1.837468
  32 H     1.0000    0     1.008   -2.064957    1.591843   -1.777518
  33 H     1.0000    0     1.008    3.667998   -0.421755    2.228877
  34 H     1.0000    0     1.008    6.234913    1.073637   -2.655375
  35 H     1.0000    0     1.008   -5.945214   -0.249839   -2.764994
  36 H     1.0000    0     1.008    2.239664   -5.169952   -3.044207
  37 H     1.0000    0     1.008    3.166620   -5.115725    0.118694
  38 H     1.0000    0     1.008   -1.805424   -5.527814   -1.274426
  39 H     1.0000    0     1.008   -2.491063   -3.126038   -3.452675
  40 H     1.0000    0     1.008   -0.300245    2.191721    3.667395
  41 H     1.0000    0     1.008   -1.270072    4.648074    1.686758
  42 H     1.0000    0     1.008    2.242415    3.966257   -1.198275
  43 H     1.0000    0     1.008    3.417129    4.162730    1.886306
  44 H     1.0000    0     1.008    6.860647   -5.796992   -2.476460
  45 H     1.0000    0     1.008    6.222844   -3.170762   -4.382887
  46 H     1.0000    0     1.008   -6.366623   -4.847480   -1.777299
  47 H     1.0000    0     1.008   -5.494855   -4.229200    1.343263
  48 H     1.0000    0     1.008    8.123517    2.066722    2.666878
  49 H     1.0000    0     1.008   -4.474316    4.783279   -0.916519
  50 H     1.0000    0     1.008   -6.134251    4.897601    1.932993
  51 H     1.0000    0     1.008   10.220574   -1.156202   -3.665492
  52 H     1.0000    0     1.008   11.651235   -2.940193   -1.237807
  53 H     1.0000    0     1.008   -2.251501   -3.490194    3.531263
  54 H     1.0000    0     1.008    0.700270   -4.656865    2.639912
  55 H     1.0000    0     1.008    0.453273   -1.666650    4.073766
  56 H     1.0000    0     1.008    3.426302   -0.276628   -4.996287
  57 H     1.0000    0     1.008    0.401463   -1.592092   -5.190879
  58 H     1.0000    0     1.008    0.802805    1.527122   -4.102885
  59 H     1.0000    0     1.008   12.067256    0.716233    1.432023
  60 H     1.0000    0     1.008   11.944392    2.334677   -1.453084
  61 H     1.0000    0     1.008   -7.396757    1.151000    4.206288
  62 H     1.0000    0     1.008   -5.167072   -1.320304    4.323886
  63 H     1.0000    0     1.008   -4.208191    1.819961    4.870253
  64 H     1.0000    0     1.008  -12.079574    2.181987   -1.542188
  65 H     1.0000    0     1.008   -9.192295    5.802969   -1.217847
  66 H     1.0000    0     1.008   -8.032816    3.521796   -3.316362
  67 H     1.0000    0     1.008    5.942877   -3.657720    2.810176
  68 H     1.0000    0     1.008    8.810585   -2.040160    3.247578
  69 H     1.0000    0     1.008  -12.437299   -1.810779   -3.312125
  70 H     1.0000    0     1.008   -9.818703   -0.387477   -4.836357
  71 H     1.0000    0     1.008   -9.630218   -3.557967   -3.797446
  72 H     1.0000    0     1.008  -12.585051   -2.356691    1.320061
  73 H     1.0000    0     1.008  -10.088322   -4.518619    0.853661
  74 H     1.0000    0     1.008   -9.836446   -2.147154    3.194625
  75 H     1.0000    0     1.008  -12.053333    4.056397    2.195969
  76 H     1.0000    0     1.008    8.103762   -7.054512    1.663222
  77 H     1.0000    0     1.008    6.105208    5.350058   -3.484334
  78 H     1.0000    0     1.008    8.248702    7.863489   -2.943454
  79 H     1.0000    0     1.008    9.359269    4.855290   -3.923790
  80 H     1.0000    0     1.008    8.493845    8.785452    1.420358
  81 H     1.0000    0     1.008    8.599467    6.230769    3.811923
  82 C     6.0000    0    12.011    4.274732  -14.790828    0.646211
  83 C     6.0000    0    12.011    5.429183  -12.315580    0.985383
  84 N     7.0000    0    14.007    6.346989  -10.347364    1.254149
  85 H     1.0000    0     1.008    4.453542  -15.886089    2.387731
  86 H     1.0000    0     1.008    5.222664  -15.793458   -0.890702
  87 H     1.0000    0     1.008    2.274493  -14.566595    0.183600
  88 C     6.0000    0    12.011  -17.739517   10.619121    2.653342
  89 C     6.0000    0    12.011  -15.852867    8.620228    2.509881
  90 N     7.0000    0    14.007  -14.354037    7.029575    2.396800
  91 H     1.0000    0     1.008  -19.617296    9.786213    2.866344
  92 H     1.0000    0     1.008  -17.686211   11.748975    0.925216
  93 H     1.0000    0     1.008  -17.343219   11.834495    4.275330

--------------------------------
INTERNAL COORDINATES (ANGSTROEM)
--------------------------------
 O      0   0   0     0.000000000000     0.00000000     0.00000000
 O      1   0   0    11.571784542742     0.00000000     0.00000000
 C      2   1   0     5.774501183614    10.82440723     0.00000000
 C      3   2   1     1.611824993799    46.09637284   140.60715517
 C      3   2   4     1.573224516212   134.97945241   291.56039973
 C      4   3   2     1.577319544882   108.05163407   285.22295690
 C      5   3   2     1.580420890970   118.19831068   211.51035935
 C      6   4   3     1.541100176701   111.00039677   171.99886263
 C      8   6   4     1.557864691149   112.33967418   301.48602004
 C      7   5   3     1.562424543336   107.56602019   310.27952856
 C      4   3   2     1.559777943363   111.27274151    46.24457482
 C      3   2   9     1.549322742582   114.50366633   111.76072731
 C      5   3   2     1.541166013498   110.54243578   344.57170663
 C     13   5   3     1.537291594830   112.76000969    55.93342640
 C      9   8   6     1.534116670927   108.22280228    60.71533970
 C     12   3   2     1.534351289501   113.80643363   143.06786755
 C      8   6   4     1.555006435168   120.49739537   178.27294704
 C     10   7   5     1.576122559842   116.72509593   187.93381478
 C      7   5   3     1.572079501980   107.47467204   194.28364875
 C      9   8   6     1.539770819485   100.86884792   182.77217114
 C      3   2   9     1.552424566315    65.51065494   209.74842901
 C      4   3   2     1.554296038508   111.48784685   164.04826676
 C     20   9   8     1.549846435504   104.49759046    40.04488925
 C      7   5   3     1.545996111884   112.86669976    75.38732971
 C      1   2   9     1.439741776536    71.39612292    48.68393266
 C     25   1   2     1.528248680362   110.80875686   288.16150047
 C      2   1  25     1.435013971315    36.70383386    93.08703571
 C     17   8   6     1.517641652639   117.87467555   281.91927311
 C     18  10   7     1.548998463363   107.23116007   151.58310052
 C     18  10   7     1.541731422889   113.70441554   269.84455673
 C     28  17   8     1.510079317601   118.32445125   313.03331927
 C     28  17   8     1.341306290003   120.73690071   136.05730239
 H      5   3   2     1.094433610044   104.92474725    98.60203099
 H      6   4   3     1.094181212784   107.10125665    56.00835952
 H      8   6   4     1.096153766172   107.80475871    56.60182609
 H     10   7   5     1.099557787847   104.06772023   302.40252368
 H     11   4   3     1.095294224587   108.93385970    69.70416830
 H     11   4   3     1.091127150131   110.18528188   314.00484256
 H     12   3   2     1.095894128533   109.51599971    20.32972617
 H     12   3   2     1.094039299625   110.20506446   263.58731551
 H     13   5   3     1.094748439675   110.39260766   293.98683081
 H     13   5   3     1.094716353208   110.00518249   177.53554794
 H     14  13   5     1.096264389997   109.55518354    70.25364793
 H     14  13   5     1.093643913607   108.95761137   185.88736083
 H     15   9   8     1.096364181177   110.90755861   181.90848086
 H     15   9   8     1.096077222456   108.52067816    65.94290535
 H     16  12   3     1.095071550629   108.10940388   178.99828172
 H     16  12   3     1.093964646192   110.84859553   294.48850237
 H     17   8   6     1.094958612893   109.06253280    43.98550764
 H     19   7   5     1.094564092745   110.06225207    10.82105796
 H     19   7   5     1.094074296332   109.26366421   255.00131951
 H     20   9   8     1.096070813264   109.21583644   281.99874194
 H     20   9   8     1.093187135313   112.77038378   162.62002590
 H     21   3   2     1.089365446493   110.99841938   201.50649906
 H     21   3   2     1.091925403791   111.19197830   319.52140654
 H     21   3   2     1.090138666232   113.72160017    81.03332182
 H     22   4   3     1.091262207221   110.74665254   183.73872058
 H     22   4   3     1.092373967608   110.99054921   301.69173107
 H     22   4   3     1.089525906463   113.97637093    63.39945940
 H     23  20   9     1.093664948582   111.44573992    98.88810984
 H     23  20   9     1.093051068310   111.27917094   217.56336101
 H     24   7   5     1.089769707662   110.24454801   167.77943550
 H     24   7   5     1.090580144308   113.30330082   288.77217088
 H     24   7   5     1.094087745628   110.38500617    49.34455189
 H     25   1   2     1.098317308612   107.16155725   169.51849212
 H     26  25   1     1.096497089735   109.41360045   299.51773409
 H     26  25   1     1.096441389187   108.20587951   184.46987301
 H     27   2   1     1.092937934337   109.25909930    23.71919749
 H     27   2   1     1.092706909769   105.74750857   138.63984029
 H     29  18  10     1.095519152880   110.52623119   175.75994941
 H     29  18  10     1.095429051112   111.42395737   295.73101118
 H     29  18  10     1.093749456625   111.31491770    56.04664785
 H     30  18  10     1.094949033339   110.05241375   178.01137886
 H     30  18  10     1.093838989026   110.35138273   296.47800819
 H     30  18  10     1.089941286412   112.92562683    57.64988204
 H      1   2  27     0.971943077904   144.14540296   358.61323975
 H      2   1  76     0.971325136507    73.94926710   191.86840033
 H     31  28  17     1.095456532495   111.06459843    69.24469889
 H     31  28  17     1.093057657300   111.03536319   189.52430251
 H     31  28  17     1.096174057137   111.59199618   310.44651026
 H     32  28  17     1.086628871140   121.61505907   176.60518984
 H     32  28  17     1.086762640643   121.43057508   356.26695312
 C     77   2   1     4.599471137119   167.41217837   202.52615763
 C     83  77   2     1.456405684770     1.36697328   143.99164684
 N     84  83  77     1.157976732052   179.97575999    84.18143069
 H     83  77   2     1.092781408966   109.58803196    49.91856450
 H     83  77   2     1.092970889154   108.47909833   290.66974736
 H     83  77   2     1.092881738548   110.86945250   170.64447324
 C     76   1   2     4.601445363720   170.92959762   197.63174812
 C     89  76   1     1.456497561550     2.43527677   161.52632028
 N     90  89  76     1.158095059301   179.94578803   330.76864609
 H     89  76   1     1.092870859652   107.19436669   347.37368558
 H     89  76   1     1.092956790517   110.60854708   228.30544904
 H     89  76   1     1.092854051834   111.09939397   106.75238105

---------------------------
INTERNAL COORDINATES (A.U.)
---------------------------
 O      0   0   0     0.000000000000     0.00000000     0.00000000
 O      1   0   0    21.867503666525     0.00000000     0.00000000
 C      2   1   0    10.912225797034    10.82440723     0.00000000
 C      3   2   1     3.045907814089    46.09637284   140.60715517
 C      3   2   4     2.972963482811   134.97945241   291.56039973
 C      4   3   2     2.980701965508   108.05163407   285.22295690
 C      5   3   2     2.986562660260   118.19831068   211.51035935
 C      6   4   3     2.912257278903   111.00039677   171.99886263
 C      8   6   4     2.943937619978   112.33967418   301.48602004
 C      7   5   3     2.952554491822   107.56602019   310.27952856
 C      4   3   2     2.947553142687   111.27274151    46.24457482
 C      3   2   9     2.927795676535   114.50366633   111.76072731
 C      5   3   2     2.912381692418   110.54243578   344.57170663
 C     13   5   3     2.905060102207   112.76000969    55.93342640
 C      9   8   6     2.899060365536   108.22280228    60.71533970
 C     12   3   2     2.899503730385   113.80643363   143.06786755
 C      8   6   4     2.938536298952   120.49739537   178.27294704
 C     10   7   5     2.978439991596   116.72509593   187.93381478
 C      7   5   3     2.970799719493   107.47467204   194.28364875
 C      9   8   6     2.909745157831   100.86884792   182.77217114
 C      3   2   9     2.933657273907    65.51065494   209.74842901
 C      4   3   2     2.937193843818   111.48784685   164.04826676
 C     20   9   8     2.928785312737   104.49759046    40.04488925
 C      7   5   3     2.921509255568   112.86669976    75.38732971
 C      1   2   9     2.720717661218    71.39612292    48.68393266
 C     25   1   2     2.887971470411   110.80875686   288.16150047
 C      2   1  25     2.711783404136    36.70383386    93.08703571
 C     17   8   6     2.867927092919   117.87467555   281.91927311
 C     18  10   7     2.927182877622   107.23116007   151.58310052
 C     18  10   7     2.913450161321   113.70441554   269.84455673
 C     28  17   8     2.853636350764   118.32445125   313.03331927
 C     28  17   8     2.534701549811   120.73690071   136.05730239
 H      5   3   2     2.068179794742   104.92474725    98.60203099
 H      6   4   3     2.067702833043   107.10125665    56.00835952
 H      8   6   4     2.071430418731   107.80475871    56.60182609
 H     10   7   5     2.077863087450   104.06772023   302.40252368
 H     11   4   3     2.069806120535   108.93385970    69.70416830
 H     11   4   3     2.061931491034   110.18528188   314.00484256
 H     12   3   2     2.070939774700   109.51599971    20.32972617
 H     12   3   2     2.067434656038   110.20506446   263.58731551
 H     13   5   3     2.068774736523   110.39260766   293.98683081
 H     13   5   3     2.068714101889   110.00518249   177.53554794
 H     14  13   5     2.071639467465   109.55518354    70.25364793
 H     14  13   5     2.066687484747   108.95761137   185.88736083
 H     15   9   8     2.071828045466   110.90755861   181.90848086
 H     15   9   8     2.071285772071   108.52067816    65.94290535
 H     16  12   3     2.069385327737   108.10940388   178.99828172
 H     16  12   3     2.067293581494   110.84859553   294.48850237
 H     17   8   6     2.069171906346   109.06253280    43.98550764
 H     19   7   5     2.068426371311   110.06225207    10.82105796
 H     19   7   5     2.067500790230   109.26366421   255.00131951
 H     20   9   8     2.071273660453   109.21583644   281.99874194
 H     20   9   8     2.065824298867   112.77038378   162.62002590
 H     21   3   2     2.058602353628   110.99841938   201.50649906
 H     21   3   2     2.063439971837   111.19197830   319.52140654
 H     21   3   2     2.060063527176   113.72160017    81.03332182
 H     22   4   3     2.062186711945   110.74665254   183.73872058
 H     22   4   3     2.064287634604   110.99054921   301.69173107
 H     22   4   3     2.058905579027   113.97637093    63.39945940
 H     23  20   9     2.066727235089   111.44573992    98.88810984
 H     23  20   9     2.065567169495   111.27917094   217.56336101
 H     24   7   5     2.059366296525   110.24454801   167.77943550
 H     24   7   5     2.060897799834   113.30330082   288.77217088
 H     24   7   5     2.067526205717   110.38500617    49.34455189
 H     25   1   2     2.075518921422   107.16155725   169.51849212
 H     26  25   1     2.072079206241   109.41360045   299.51773409
 H     26  25   1     2.071973947459   108.20587951   184.46987301
 H     27   2   1     2.065353377271   109.25909930    23.71919749
 H     27   2   1     2.064916804108   105.74750857   138.63984029
 H     29  18  10     2.070231173408   110.52623119   175.75994941
 H     29  18  10     2.070060905744   111.42395737   295.73101118
 H     29  18  10     2.066886932147   111.31491770    56.04664785
 H     30  18  10     2.069153803612   110.05241375   178.01137886
 H     30  18  10     2.067056123865   110.35138273   296.47800819
 H     30  18  10     2.059690533372   112.92562683    57.64988204
 H      1   2  27     1.836706235000   144.14540296   358.61323975
 H      2   1  76     1.835538494992    73.94926710   191.86840033
 H     31  28  17     2.070112838030   111.06459843    69.24469889
 H     31  28  17     2.065579620882   111.03536319   189.52430251
 H     31  28  17     2.071468763098   111.59199618   310.44651026
 H     32  28  17     2.053430975666   121.61505907   176.60518984
 H     32  28  17     2.053683763392   121.43057508   356.26695312
 C     77   2   1     8.691740810030   167.41217837   202.52615763
 C     83  77   2     2.752207884101     1.36697328   143.99164684
 N     84  83  77     2.188258893032   179.97575999    84.18143069
 H     83  77   2     2.065057587187   109.58803196    49.91856450
 H     83  77   2     2.065415652849   108.47909833   290.66974736
 H     83  77   2     2.065247182619   110.86945250   170.64447324
 C     76   1   2     8.695471557632   170.92959762   197.63174812
 C     89  76   1     2.752381506054     2.43527677   161.52632028
 N     90  89  76     2.188482499127   179.94578803   330.76864609
 H     89  76   1     2.065226624485   107.19436669   347.37368558
 H     89  76   1     2.065389010287   110.60854708   228.30544904
 H     89  76   1     2.065194862312   111.09939397   106.75238105

---------------------
BASIS SET INFORMATION
---------------------
There are 4 groups of distinct atoms

 Group   1 Type O   : 11s5p2d contracted to 4s3p2d pattern {6311/311/11}
 Group   2 Type C   : 11s5p2d contracted to 4s3p2d pattern {6311/311/11}
 Group   3 Type H   : 5s2p contracted to 3s2p pattern {311/11}
 Group   4 Type N   : 11s5p2d contracted to 4s3p2d pattern {6311/311/11}

Atom   0O    basis set group =>   1
Atom   1O    basis set group =>   1
Atom   2C    basis set group =>   2
Atom   3C    basis set group =>   2
Atom   4C    basis set group =>   2
Atom   5C    basis set group =>   2
Atom   6C    basis set group =>   2
Atom   7C    basis set group =>   2
Atom   8C    basis set group =>   2
Atom   9C    basis set group =>   2
Atom  10C    basis set group =>   2
Atom  11C    basis set group =>   2
Atom  12C    basis set group =>   2
Atom  13C    basis set group =>   2
Atom  14C    basis set group =>   2
Atom  15C    basis set group =>   2
Atom  16C    basis set group =>   2
Atom  17C    basis set group =>   2
Atom  18C    basis set group =>   2
Atom  19C    basis set group =>   2
Atom  20C    basis set group =>   2
Atom  21C    basis set group =>   2
Atom  22C    basis set group =>   2
Atom  23C    basis set group =>   2
Atom  24C    basis set group =>   2
Atom  25C    basis set group =>   2
Atom  26C    basis set group =>   2
Atom  27C    basis set group =>   2
Atom  28C    basis set group =>   2
Atom  29C    basis set group =>   2
Atom  30C    basis set group =>   2
Atom  31C    basis set group =>   2
Atom  32H    basis set group =>   3
Atom  33H    basis set group =>   3
Atom  34H    basis set group =>   3
Atom  35H    basis set group =>   3
Atom  36H    basis set group =>   3
Atom  37H    basis set group =>   3
Atom  38H    basis set group =>   3
Atom  39H    basis set group =>   3
Atom  40H    basis set group =>   3
Atom  41H    basis set group =>   3
Atom  42H    basis set group =>   3
Atom  43H    basis set group =>   3
Atom  44H    basis set group =>   3
Atom  45H    basis set group =>   3
Atom  46H    basis set group =>   3
Atom  47H    basis set group =>   3
Atom  48H    basis set group =>   3
Atom  49H    basis set group =>   3
Atom  50H    basis set group =>   3
Atom  51H    basis set group =>   3
Atom  52H    basis set group =>   3
Atom  53H    basis set group =>   3
Atom  54H    basis set group =>   3
Atom  55H    basis set group =>   3
Atom  56H    basis set group =>   3
Atom  57H    basis set group =>   3
Atom  58H    basis set group =>   3
Atom  59H    basis set group =>   3
Atom  60H    basis set group =>   3
Atom  61H    basis set group =>   3
Atom  62H    basis set group =>   3
Atom  63H    basis set group =>   3
Atom  64H    basis set group =>   3
Atom  65H    basis set group =>   3
Atom  66H    basis set group =>   3
Atom  67H    basis set group =>   3
Atom  68H    basis set group =>   3
Atom  69H    basis set group =>   3
Atom  70H    basis set group =>   3
Atom  71H    basis set group =>   3
Atom  72H    basis set group =>   3
Atom  73H    basis set group =>   3
Atom  74H    basis set group =>   3
Atom  75H    basis set group =>   3
Atom  76H    basis set group =>   3
Atom  77H    basis set group =>   3
Atom  78H    basis set group =>   3
Atom  79H    basis set group =>   3
Atom  80H    basis set group =>   3
Atom  81H    basis set group =>   3
Atom  82C    basis set group =>   2
Atom  83C    basis set group =>   2
Atom  84N    basis set group =>   4
Atom  85H    basis set group =>   3
Atom  86H    basis set group =>   3
Atom  87H    basis set group =>   3
Atom  88C    basis set group =>   2
Atom  89C    basis set group =>   2
Atom  90N    basis set group =>   4
Atom  91H    basis set group =>   3
Atom  92H    basis set group =>   3
Atom  93H    basis set group =>   3
---------------------------------
AUXILIARY/J BASIS SET INFORMATION
---------------------------------
There are 4 groups of distinct atoms

 Group   1 Type O   : 12s5p4d2f1g contracted to 6s4p3d1f1g pattern {711111/2111/211/2/1}
 Group   2 Type C   : 12s5p4d2f1g contracted to 6s4p3d1f1g pattern {711111/2111/211/2/1}
 Group   3 Type H   : 5s2p1d contracted to 3s1p1d pattern {311/2/1}
 Group   4 Type N   : 12s5p4d2f1g contracted to 6s4p3d1f1g pattern {711111/2111/211/2/1}

Atom   0O    basis set group =>   1
Atom   1O    basis set group =>   1
Atom   2C    basis set group =>   2
Atom   3C    basis set group =>   2
Atom   4C    basis set group =>   2
Atom   5C    basis set group =>   2
Atom   6C    basis set group =>   2
Atom   7C    basis set group =>   2
Atom   8C    basis set group =>   2
Atom   9C    basis set group =>   2
Atom  10C    basis set group =>   2
Atom  11C    basis set group =>   2
Atom  12C    basis set group =>   2
Atom  13C    basis set group =>   2
Atom  14C    basis set group =>   2
Atom  15C    basis set group =>   2
Atom  16C    basis set group =>   2
Atom  17C    basis set group =>   2
Atom  18C    basis set group =>   2
Atom  19C    basis set group =>   2
Atom  20C    basis set group =>   2
Atom  21C    basis set group =>   2
Atom  22C    basis set group =>   2
Atom  23C    basis set group =>   2
Atom  24C    basis set group =>   2
Atom  25C    basis set group =>   2
Atom  26C    basis set group =>   2
Atom  27C    basis set group =>   2
Atom  28C    basis set group =>   2
Atom  29C    basis set group =>   2
Atom  30C    basis set group =>   2
Atom  31C    basis set group =>   2
Atom  32H    basis set group =>   3
Atom  33H    basis set group =>   3
Atom  34H    basis set group =>   3
Atom  35H    basis set group =>   3
Atom  36H    basis set group =>   3
Atom  37H    basis set group =>   3
Atom  38H    basis set group =>   3
Atom  39H    basis set group =>   3
Atom  40H    basis set group =>   3
Atom  41H    basis set group =>   3
Atom  42H    basis set group =>   3
Atom  43H    basis set group =>   3
Atom  44H    basis set group =>   3
Atom  45H    basis set group =>   3
Atom  46H    basis set group =>   3
Atom  47H    basis set group =>   3
Atom  48H    basis set group =>   3
Atom  49H    basis set group =>   3
Atom  50H    basis set group =>   3
Atom  51H    basis set group =>   3
Atom  52H    basis set group =>   3
Atom  53H    basis set group =>   3
Atom  54H    basis set group =>   3
Atom  55H    basis set group =>   3
Atom  56H    basis set group =>   3
Atom  57H    basis set group =>   3
Atom  58H    basis set group =>   3
Atom  59H    basis set group =>   3
Atom  60H    basis set group =>   3
Atom  61H    basis set group =>   3
Atom  62H    basis set group =>   3
Atom  63H    basis set group =>   3
Atom  64H    basis set group =>   3
Atom  65H    basis set group =>   3
Atom  66H    basis set group =>   3
Atom  67H    basis set group =>   3
Atom  68H    basis set group =>   3
Atom  69H    basis set group =>   3
Atom  70H    basis set group =>   3
Atom  71H    basis set group =>   3
Atom  72H    basis set group =>   3
Atom  73H    basis set group =>   3
Atom  74H    basis set group =>   3
Atom  75H    basis set group =>   3
Atom  76H    basis set group =>   3
Atom  77H    basis set group =>   3
Atom  78H    basis set group =>   3
Atom  79H    basis set group =>   3
Atom  80H    basis set group =>   3
Atom  81H    basis set group =>   3
Atom  82C    basis set group =>   2
Atom  83C    basis set group =>   2
Atom  84N    basis set group =>   4
Atom  85H    basis set group =>   3
Atom  86H    basis set group =>   3
Atom  87H    basis set group =>   3
Atom  88C    basis set group =>   2
Atom  89C    basis set group =>   2
Atom  90N    basis set group =>   4
Atom  91H    basis set group =>   3
Atom  92H    basis set group =>   3
Atom  93H    basis set group =>   3

Checking for AutoStart:
The File: betulin_acetometrille_freq.gbw exists
Trying to determine its content:
     ... Fine, the file contains calculation information
     ... Fine, the calculation information was read
     ... Fine, the file contains a basis set
     ... Fine, the basis set was read
     ... Fine, the file contains a geometry
     ... Fine, the geometry was read
     ... Fine, the file contains a set of orbitals
     ... Fine, the orbitals can be read
     => possible old guess file was deleted
     => GBW file was renamed to GES file
     => GES file is set as startup file
     => Guess is set to MORead
     ... now leaving AutoStart



           ************************************************************
           *        Program running with 8 parallel MPI-processes     *
           *              working on a common directory               *
           ************************************************************
------------------------------------------------------------------------------
                           ORCA GTO INTEGRAL CALCULATION
                           -- RI-GTO INTEGRALS CHOSEN --
------------------------------------------------------------------------------
------------------------------------------------------------------------------
                   ___                                                        
                  /   \      - P O W E R E D   B Y -                         
                 /     \                                                     
                 |  |  |   _    _      __       _____    __    __             
                 |  |  |  | |  | |    /  \     |  _  \  |  |  /  |          
                  \  \/   | |  | |   /    \    | | | |  |  | /  /          
                 / \  \   | |__| |  /  /\  \   | |_| |  |  |/  /          
                |  |  |   |  __  | /  /__\  \  |    /   |      \           
                |  |  |   | |  | | |   __   |  |    \   |  |\   \          
                \     /   | |  | | |  |  |  |  | |\  \  |  | \   \       
                 \___/    |_|  |_| |__|  |__|  |_| \__\ |__|  \__/        
                                                                              
                      - O R C A' S   B I G   F R I E N D -                    
                                      &                                       
                       - I N T E G R A L  F E E D E R -                       
                                                                              
 v1 FN, 2020, v2 2021                                                         
------------------------------------------------------------------------------


Reading SHARK input file betulin_acetometrille_freq.SHARKINP.tmp ... ok
----------------------
SHARK INTEGRAL PACKAGE
----------------------

Number of atoms                             ...     94
Number of basis functions                   ...   1378
Number of shells                            ...    622
Maximum angular momentum                    ...      2
Integral batch strategy                     ... SHARK/LIBINT Hybrid
RI-J (if used) integral strategy            ... SPLIT-RIJ (Revised 2003 algorithm where possible)
Printlevel                                  ...      1
Contraction scheme used                     ... SEGMENTED contraction
Coulomb Range Separation                    ... NOT USED
Exchange Range Separation                   ... NOT USED
Finite Nucleus Model                        ... NOT USED
Auxiliary Coulomb fitting basis             ... AVAILABLE
   # of basis functions in Aux-J            ...   2478
   # of shells in Aux-J                     ...    850
   Maximum angular momentum in Aux-J        ...      4
Auxiliary J/K fitting basis                 ... NOT available
Auxiliary Correlation fitting basis         ... NOT available
Auxiliary 'external' fitting basis          ... NOT available
Integral threshold                          ...     1.000000e-10
Primitive cut-off                           ...     1.000000e-11
Primitive pair pre-selection threshold      ...     1.000000e-11

Calculating pre-screening integrals         ... done (  0.0 sec) Dimension = 622
Organizing shell pair data                  ... done (  0.5 sec)
Shell pair information
Total number of shell pairs                 ...    193753
Shell pairs after pre-screening             ...    129673
Total number of primitive shell pairs       ...    580392
Primitive shell pairs kept                  ...    256176
          la=0 lb=0:  37924 shell pairs
          la=1 lb=0:  49590 shell pairs
          la=1 lb=1:  15970 shell pairs
          la=2 lb=0:  15296 shell pairs
          la=2 lb=1:   9517 shell pairs
          la=2 lb=2:   1376 shell pairs

Calculating one electron integrals          ... done (  0.1 sec)
Calculating RI/J V-Matrix + Cholesky decomp.... done (  0.2 sec)
Calculating Nuclear repulsion               ... done (  0.0 sec) ENN=   4585.024430763554 Eh

SHARK setup successfully completed in   1.2 seconds

Maximum memory used throughout the entire GTOINT-calculation: 176.0 MB


           ************************************************************
           *        Program running with 8 parallel MPI-processes     *
           *              working on a common directory               *
           ************************************************************
-------------------------------------------------------------------------------
                                 ORCA SCF
-------------------------------------------------------------------------------

------------
SCF SETTINGS
------------
Hamiltonian:
 Density Functional     Method          .... DFT(GTOs)
 Exchange Functional    Exchange        .... B88
   X-Alpha parameter    XAlpha          ....  0.666667
   Becke's b parameter  XBeta           ....  0.004200
 Correlation Functional Correlation     .... LYP
 LDA part of GGA corr.  LDAOpt          .... VWN-5
 Gradients option       PostSCFGGA      .... off
 Hybrid DFT is turned on
   Fraction HF Exchange ScalHFX         ....  0.200000
   Scaling of DF-GGA-X  ScalDFX         ....  0.720000
   Scaling of DF-GGA-C  ScalDFC         ....  0.810000
   Scaling of DF-LDA-C  ScalLDAC        ....  1.000000
   Perturbative correction              ....  0.000000
   Density functional embedding theory  .... OFF
   NL short-range parameter             ....  4.800000
 RI-approximation to the Coulomb term is turned on
   Number of AuxJ basis functions       .... 2478
   RIJ-COSX (HFX calculated with COS-X)).... on


General Settings:
 Integral files         IntName         .... betulin_acetometrille_freq
 Hartree-Fock type      HFTyp           .... RHF
 Total Charge           Charge          ....    0
 Multiplicity           Mult            ....    1
 Number of Electrons    NEL             ....  290
 Basis Dimension        Dim             .... 1378
 Nuclear Repulsion      ENuc            ....   4585.0244307636 Eh

Convergence Acceleration:
 DIIS                   CNVDIIS         .... on
   Start iteration      DIISMaxIt       ....    12
   Startup error        DIISStart       ....  0.200000
   # of expansion vecs  DIISMaxEq       ....     5
   Bias factor          DIISBfac        ....   1.050
   Max. coefficient     DIISMaxC        ....  10.000
 Trust-Rad. Augm. Hess. CNVTRAH         .... auto
   Auto Start mean grad. ratio tolernc. ....  1.125000
   Auto Start start iteration           ....     1
   Auto Start num. interpolation iter.  ....    10
   Max. Number of Micro iterations      ....    16
   Max. Number of Macro iterations      .... Maxiter - #DIIS iter
   Number of Davidson start vectors     ....     2
   Converg. threshold I  (grad. norm)   ....   5.000e-05
   Converg. threshold II (energy diff.) ....   1.000e-06
   Grad. Scal. Fac. for Micro threshold ....   0.100
   Minimum threshold for Micro iter.    ....   0.010
   NR start threshold (gradient norm)   ....   0.001
   Initial trust radius                 ....   0.400
   Minimum AH scaling param. (alpha)    ....   1.000
   Maximum AH scaling param. (alpha)    .... 1000.000
   Orbital update algorithm             .... Taylor
   White noise on init. David. guess    .... on
   Maximum white noise                  ....   0.010
   Quad. conv. algorithm                .... NR
 SOSCF                  CNVSOSCF        .... on
   Start iteration      SOSCFMaxIt      ....   150
   Startup grad/error   SOSCFStart      ....  0.003300
 Level Shifting         CNVShift        .... on
   Level shift para.    LevelShift      ....    0.2500
   Turn off err/grad.   ShiftErr        ....    0.0010
 Zerner damping         CNVZerner       .... off
 Static damping         CNVDamp         .... on
   Fraction old density DampFac         ....    0.7000
   Max. Damping (<1)    DampMax         ....    0.9800
   Min. Damping (>=0)   DampMin         ....    0.0000
   Turn off err/grad.   DampErr         ....    0.1000
 Fernandez-Rico         CNVRico         .... off

SCF Procedure:
 Maximum # iterations   MaxIter         ....   125
 SCF integral mode      SCFMode         .... Direct
   Integral package                     .... SHARK and LIBINT hybrid scheme
 Reset frequency        DirectResetFreq ....    20
 Integral Threshold     Thresh          ....  1.000e-10 Eh
 Primitive CutOff       TCut            ....  1.000e-11 Eh

Convergence Tolerance:
 Convergence Check Mode ConvCheckMode   .... Total+1el-Energy
 Convergence forced     ConvForced      .... 0
 Energy Change          TolE            ....  1.000e-06 Eh
 1-El. energy change                    ....  1.000e-03 Eh
 Orbital Gradient       TolG            ....  5.000e-05
 Orbital Rotation angle TolX            ....  5.000e-05
 DIIS Error             TolErr          ....  1.000e-06


Diagonalization of the overlap matrix:
Smallest eigenvalue                        ... 3.936e-08
Time for diagonalization                   ...    0.105 sec
Threshold for overlap eigenvalues          ... 1.000e-08
Number of eigenvalues below threshold      ... 0
Time for construction of square roots      ...    0.096 sec
Total time needed                          ...    0.207 sec

---------------------
INITIAL GUESS: MOREAD
---------------------
Guess MOs are being read from file: betulin_acetometrille_freq.ges
Input geometry compatible with but different from current geometry
Input basis set matches current basis set (good)
MOs were renormalized
MOs were reorthogonalized (Cholesky)
                      ------------------
                      INITIAL GUESS DONE (   0.6 sec)
                      ------------------
-------------------
DFT GRID GENERATION
-------------------

General Integration Accuracy     IntAcc      ... 4.388
Radial Grid Type                 RadialGrid  ... OptM3 with GC (2021)
Angular Grid (max. ang.)         AngularGrid ... 4 (Lebedev-302)
Angular grid pruning method      GridPruning ... 4 (adaptive)
Weight generation scheme         WeightScheme... Becke
Basis function cutoff            BFCut       ... 1.0000e-10
Integration weight cutoff        WCut        ... 1.0000e-14
Angular grids for H and He will be reduced by one unit
Partially contracted basis set               ... off
Rotationally invariant grid construction     ... off

Total number of grid points                  ...   412607
Total number of batches                      ...     6493
Average number of points per batch           ...       63
Average number of grid points per atom       ...     4389
Time for grid setup =    1.999 sec

--------------------
COSX GRID GENERATION
--------------------

GRIDX 1
-------
General Integration Accuracy     IntAcc      ... 3.816
Radial Grid Type                 RadialGrid  ... OptM3 with GC (2021)
Angular Grid (max. ang.)         AngularGrid ... 1 (Lebedev-50)
Angular grid pruning method      GridPruning ... 4 (adaptive)
Weight generation scheme         WeightScheme... Becke
Basis function cutoff            BFCut       ... 1.0000e-10
Integration weight cutoff        WCut        ... 1.0000e-14
Angular grids for H and He will be reduced by one unit
Partially contracted basis set               ... on
Rotationally invariant grid construction     ... off

Total number of grid points                  ...    51310
Total number of batches                      ...      852
Average number of points per batch           ...       60
Average number of grid points per atom       ...      546
UseSFitting                                  ... on

GRIDX 2
-------
General Integration Accuracy     IntAcc      ... 4.020
Radial Grid Type                 RadialGrid  ... OptM3 with GC (2021)
Angular Grid (max. ang.)         AngularGrid ... 2 (Lebedev-110)
Angular grid pruning method      GridPruning ... 4 (adaptive)
Weight generation scheme         WeightScheme... Becke
Basis function cutoff            BFCut       ... 1.0000e-10
Integration weight cutoff        WCut        ... 1.0000e-14
Angular grids for H and He will be reduced by one unit
Partially contracted basis set               ... on
Rotationally invariant grid construction     ... off

Total number of grid points                  ...   113618
Total number of batches                      ...     1821
Average number of points per batch           ...       62
Average number of grid points per atom       ...     1209
UseSFitting                                  ... on

GRIDX 3
-------
General Integration Accuracy     IntAcc      ... 4.338
Radial Grid Type                 RadialGrid  ... OptM3 with GC (2021)
Angular Grid (max. ang.)         AngularGrid ... 3 (Lebedev-194)
Angular grid pruning method      GridPruning ... 4 (adaptive)
Weight generation scheme         WeightScheme... Becke
Basis function cutoff            BFCut       ... 1.0000e-10
Integration weight cutoff        WCut        ... 1.0000e-14
Angular grids for H and He will be reduced by one unit
Partially contracted basis set               ... on
Rotationally invariant grid construction     ... off

Total number of grid points                  ...   251139
Total number of batches                      ...     3972
Average number of points per batch           ...       63
Average number of grid points per atom       ...     2672
UseSFitting                                  ... on

Time for X-Grid setup             =    3.753 sec


--------------------
CPCM SOLVATION MODEL
--------------------
CPCM parameters:
  Epsilon                                         ...      36.6000
  Refrac                                          ...       1.3440
  Rsolv                                           ...       1.3000
  Surface type                                    ... GAUSSIAN VDW
  Epsilon function type                           ...         CPCM
Radii:
 Radius for O  used is    3.4469 Bohr (=   1.8240 Ang.)
 Radius for C  used is    3.8550 Bohr (=   2.0400 Ang.)
 Radius for H  used is    2.4944 Bohr (=   1.3200 Ang.)
 Radius for N  used is    3.5149 Bohr (=   1.8600 Ang.)
Calculating surface                               ...        done! (  0.0s)
GEPOL surface points                              ...         4388
GEPOL Volume                                      ...    4622.8645
GEPOL Surface-area                                ...    2215.6495
Calculating surface distance matrix               ...        done! (  0.1s)
Performing Cholesky decomposition & store         ...        done! (  0.4s)
Overall time for CPCM initialization              ...                 0.5s
--------------
SCF ITERATIONS
--------------
ITER       Energy         Delta-E        Max-DP      RMS-DP      [F,P]     Damp
               ***  Starting incremental Fock matrix formation  ***
                      *** Initiating the SOSCF procedure ***
                      *** Re-Reading the Fockian *** 
                      *** Removing any level shift *** 
ITER      Energy       Delta-E        Grad      Rot      Max-DP    RMS-DP
  0  -1588.34197050 -1588.3419705047  0.002448  0.002448 17.928490  0.055752
               *** Restarting incremental Fock matrix formation ***
  1  -1588.34213761  -0.0001671010  0.000548  0.000767 81.323675  0.179635
  2  -1588.34214665  -0.0000090430  0.000085  0.000258 122.953847  0.240555
  3  -1588.34213265   0.0000139941  0.000097  0.001050 1712.302754  2.757288
  4  -1588.34184035   0.0002923029  0.000688  0.000902 1347.607061  2.196571
  5  -1588.34209033  -0.0002499818  0.000170  0.000172 418.007180  0.529839
  6  -1588.34204608   0.0000442499  0.000134  0.000411 1099.674749  1.354027
  7  -1588.34189098   0.0001551059  0.000125  0.000151 455.063998  0.614013
  8  -1588.34196154  -0.0000705629  0.000145  0.000872 1517.807382  1.963539
  9  -1588.34209586  -0.0001343163  0.000278  0.000494 638.128402  0.839595
 10  -1588.34207517   0.0000206904  0.000117  0.000186 281.278166  0.394670
 11  -1588.34210936  -0.0000341945  0.000156  0.000129 151.808948  0.298120
 12  -1588.34209717   0.0000121950  0.000145  0.000268 542.084089  0.963951
 13  -1588.34201576   0.0000814032  0.000132  0.000184 407.818273  0.893851
 14  -1588.34194774   0.0000680267  0.000261  0.113193 6930740.220253 14040.228769
 15  -1585.58901488   2.7529328549  0.047387  0.112385 6929591.361137 14037.535863
 16  -1588.34165929  -2.7526444123  0.000317  0.000646 1675.734815  3.769603
 17  -1588.34199293  -0.0003336382  0.000440  0.000617 1521.167154  3.378816
 18  -1588.34171268   0.0002802490  0.000387  0.000895 3542.162047  5.567187
 19  -1588.34100752   0.0007051659  0.000437  0.000609 806.001571  1.150970

 WARNING: the maximum gradient error descreased on average only by a factor   0.8
          during the last 20 iterations

                      *** Initiating the TRAH-SCF procedure ***

              ***Rediagonalizing the Fockian in SOSCF/NRSCF***

TRAH GRIDX
----------

General Integration Accuracy     IntAcc      ... 3.067
Radial Grid Type                 RadialGrid  ... OptM3 with GC (2021)
Angular Grid (max. ang.)         AngularGrid ... 1 (Lebedev-50)
Angular grid pruning method      GridPruning ... 4 (adaptive)
Weight generation scheme         WeightScheme... Becke
Basis function cutoff            BFCut       ... 1.0000e-10
Integration weight cutoff        WCut        ... 1.0000e-14
Angular grids for H and He will be reduced by one unit
Partially contracted basis set               ... on
Rotationally invariant grid construction     ... off

Total number of grid points                  ...    26854
Total number of batches                      ...      466
Average number of points per batch           ...       57
Average number of grid points per atom       ...      286


TRAH GRID
---------

General Integration Accuracy     IntAcc      ... 3.467
Radial Grid Type                 RadialGrid  ... OptM3 with GC (2021)
Angular Grid (max. ang.)         AngularGrid ... 1 (Lebedev-50)
Angular grid pruning method      GridPruning ... 4 (adaptive)
Weight generation scheme         WeightScheme... Becke
Basis function cutoff            BFCut       ... 1.0000e-10
Integration weight cutoff        WCut        ... 1.0000e-14
Angular grids for H and He will be reduced by one unit
Partially contracted basis set               ... off
Rotationally invariant grid construction     ... off

Total number of grid points                  ...    55810
Total number of batches                      ...      913
Average number of points per batch           ...       61
Average number of grid points per atom       ...      594

 --------------------------------------------------------------------------------------------
   Iter.        energy            ||Error||_2        Shift      TRadius  Mac/Mic        Rej.
 --------------------------------------------------------------------------------------------
    0      -1588.340999660603     1.166374e-01                     0.400 (TRAH MAcro)   No
    0     dE    -8.047007e-04     7.823640e-02    -1.6091e-03      0.014 (TRAH MIcro)
    0     dE    -1.247657e-03     2.401138e-03    -2.4937e-03      0.026 (TRAH MIcro)
    1      -1588.342151572687     2.838098e-03                     0.480 (TRAH MAcro)   No
    1     dE    -3.463503e-07     2.710644e-03    -6.9270e-07      0.000 (TRAH MIcro)
    1     dE    -5.284196e-07     4.379044e-04    -1.0568e-06      0.000 (TRAH MIcro)
    1     dE    -5.456713e-07     1.580384e-04    -1.0913e-06      0.000 (TRAH MIcro)
    2      -1588.342152226404     1.622068e-04                           (NR   MAcro)
    2     dE    -1.344094e-09     6.050012e-05                           (NR   MIcro)
    2     dE    -1.561402e-09     2.548210e-05                           (NR   MIcro)
    2     dE    -1.603523e-09     5.788851e-06                           (NR   MIcro)
    2     dE    -1.605843e-09     1.868058e-06                           (NR   MIcro)
    3      -1588.342152228447     1.922712e-06                           (NR   MAcro)

               *****************************************************
               *                     SUCCESS                       *
               *           SCF CONVERGED AFTER  33 CYCLES          *
               *****************************************************

Old exchange energy                            =    -45.203628236 Eh
New exchange energy                            =    -45.203680751 Eh
Exchange energy change after final integration =     -0.000052515 Eh
Total energy after final integration           =  -1588.342204744 Eh
Final COS-X integration done in                =    99.183 sec

----------------
TOTAL SCF ENERGY
----------------

Total Energy       :        -1588.34220474 Eh          -43220.98870 eV

Components:
Nuclear Repulsion  :         4585.02443076 Eh          124764.85768 eV
Electronic Energy  :        -6173.36663551 Eh         -167985.84639 eV
One Electron Energy:       -11282.47098893 Eh         -307011.64378 eV
Two Electron Energy:         5109.10435342 Eh          139025.79739 eV
Max COSX asymmetry :            0.00009135 Eh               0.00249 eV
CPCM Dielectric    :           -0.03802947 Eh              -1.03483 eV

Virial components:
Potential Energy   :        -3167.22834498 Eh          -86184.66481 eV
Kinetic Energy     :         1578.88614023 Eh           42963.67611 eV
Virial Ratio       :            2.00598907


DFT components:
N(Alpha)           :      145.000053246999 electrons
N(Beta)            :      145.000053246999 electrons
N(Total)           :      290.000106493998 electrons
E(X)               :     -179.223118792699 Eh       
E(C)               :      -11.307804564979 Eh       
E(XC)              :     -190.530923357679 Eh       
DFET-embed. en.    :        0.000000000000 Eh       
CPCM Solvation Model Properties:
Surface-charge          :           -0.05705297
Charge-correction       :           -0.00035441 Eh              -0.00964 eV
Free-energy (cav+disp)  :  This term is not implemented in the current solvation scheme

---------------
SCF CONVERGENCE
---------------

  Last Energy change         ...   -2.0425e-09  Tolerance :   1.0000e-06
  Last Orbital Gradient      ...    1.9227e-06  Tolerance :   5.0000e-05
  Last Orbital Rotation      ...    2.6395e-05

             **** THE GBW FILE WAS UPDATED (betulin_acetometrille_freq.gbw) ****
             **** DENSITY betulin_acetometrille_freq.scfp WAS UPDATED ****
             **** ENERGY FILE WAS UPDATED (betulin_acetometrille_freq.en.tmp) ****
             **** THE GBW FILE WAS UPDATED (betulin_acetometrille_freq.gbw) ****
             **** DENSITY betulin_acetometrille_freq.scfp WAS UPDATED ****
----------------
ORBITAL ENERGIES
----------------

  NO   OCC          E(Eh)            E(eV) 
   0   2.0000     -19.136407      -520.7281 
   1   2.0000     -19.129959      -520.5526 
   2   2.0000     -14.352309      -390.5462 
   3   2.0000     -14.352220      -390.5438 
   4   2.0000     -10.249293      -278.8974 
   5   2.0000     -10.248977      -278.8889 
   6   2.0000     -10.219511      -278.0870 
   7   2.0000     -10.219354      -278.0828 
   8   2.0000     -10.214100      -277.9398 
   9   2.0000     -10.209911      -277.8258 
  10   2.0000     -10.185808      -277.1699 
  11   2.0000     -10.180199      -277.0173 
  12   2.0000     -10.179108      -276.9876 
  13   2.0000     -10.177158      -276.9346 
  14   2.0000     -10.175391      -276.8865 
  15   2.0000     -10.173765      -276.8422 
  16   2.0000     -10.170735      -276.7598 
  17   2.0000     -10.166157      -276.6352 
  18   2.0000     -10.165502      -276.6174 
  19   2.0000     -10.164759      -276.5972 
  20   2.0000     -10.163228      -276.5555 
  21   2.0000     -10.162500      -276.5357 
  22   2.0000     -10.160715      -276.4871 
  23   2.0000     -10.160607      -276.4842 
  24   2.0000     -10.159672      -276.4587 
  25   2.0000     -10.159011      -276.4407 
  26   2.0000     -10.158856      -276.4365 
  27   2.0000     -10.157522      -276.4002 
  28   2.0000     -10.157357      -276.3957 
  29   2.0000     -10.157097      -276.3887 
  30   2.0000     -10.156669      -276.3770 
  31   2.0000     -10.155924      -276.3567 
  32   2.0000     -10.155436      -276.3435 
  33   2.0000     -10.155387      -276.3421 
  34   2.0000     -10.152665      -276.2680 
  35   2.0000     -10.150756      -276.2161 
  36   2.0000     -10.149081      -276.1705 
  37   2.0000     -10.144960      -276.0584 
  38   2.0000      -1.005237       -27.3539 
  39   2.0000      -1.003086       -27.2954 
  40   2.0000      -0.925750       -25.1909 
  41   2.0000      -0.925624       -25.1875 
  42   2.0000      -0.858012       -23.3477 
  43   2.0000      -0.843445       -22.9513 
  44   2.0000      -0.819884       -22.3102 
  45   2.0000      -0.797496       -21.7010 
  46   2.0000      -0.780997       -21.2520 
  47   2.0000      -0.777259       -21.1503 
  48   2.0000      -0.771182       -20.9849 
  49   2.0000      -0.771072       -20.9819 
  50   2.0000      -0.761529       -20.7223 
  51   2.0000      -0.739337       -20.1184 
  52   2.0000      -0.730654       -19.8821 
  53   2.0000      -0.720424       -19.6037 
  54   2.0000      -0.705470       -19.1968 
  55   2.0000      -0.689113       -18.7517 
  56   2.0000      -0.679905       -18.5012 
  57   2.0000      -0.674992       -18.3675 
  58   2.0000      -0.671046       -18.2601 
  59   2.0000      -0.659786       -17.9537 
  60   2.0000      -0.656302       -17.8589 
  61   2.0000      -0.655261       -17.8305 
  62   2.0000      -0.642894       -17.4940 
  63   2.0000      -0.609303       -16.5800 
  64   2.0000      -0.599799       -16.3214 
  65   2.0000      -0.588100       -16.0030 
  66   2.0000      -0.572496       -15.5784 
  67   2.0000      -0.568478       -15.4691 
  68   2.0000      -0.544620       -14.8199 
  69   2.0000      -0.536218       -14.5912 
  70   2.0000      -0.524510       -14.2726 
  71   2.0000      -0.515410       -14.0250 
  72   2.0000      -0.513475       -13.9724 
  73   2.0000      -0.510470       -13.8906 
  74   2.0000      -0.503129       -13.6908 
  75   2.0000      -0.497358       -13.5338 
  76   2.0000      -0.487906       -13.2766 
  77   2.0000      -0.484607       -13.1868 
  78   2.0000      -0.471600       -12.8329 
  79   2.0000      -0.466901       -12.7050 
  80   2.0000      -0.461306       -12.5528 
  81   2.0000      -0.458615       -12.4796 
  82   2.0000      -0.453914       -12.3516 
  83   2.0000      -0.453848       -12.3498 
  84   2.0000      -0.453777       -12.3479 
  85   2.0000      -0.453768       -12.3477 
  86   2.0000      -0.448423       -12.2022 
  87   2.0000      -0.447407       -12.1746 
  88   2.0000      -0.444622       -12.0988 
  89   2.0000      -0.436759       -11.8848 
  90   2.0000      -0.435156       -11.8412 
  91   2.0000      -0.428917       -11.6714 
  92   2.0000      -0.420956       -11.4548 
  93   2.0000      -0.414432       -11.2773 
  94   2.0000      -0.412684       -11.2297 
  95   2.0000      -0.408948       -11.1280 
  96   2.0000      -0.408018       -11.1027 
  97   2.0000      -0.401783       -10.9331 
  98   2.0000      -0.398954       -10.8561 
  99   2.0000      -0.397531       -10.8174 
 100   2.0000      -0.393159       -10.6984 
 101   2.0000      -0.391437       -10.6515 
 102   2.0000      -0.390120       -10.6157 
 103   2.0000      -0.385229       -10.4826 
 104   2.0000      -0.380600       -10.3567 
 105   2.0000      -0.376690       -10.2503 
 106   2.0000      -0.374229       -10.1833 
 107   2.0000      -0.368433       -10.0256 
 108   2.0000      -0.365604        -9.9486 
 109   2.0000      -0.362941        -9.8761 
 110   2.0000      -0.359611        -9.7855 
 111   2.0000      -0.356345        -9.6967 
 112   2.0000      -0.356139        -9.6910 
 113   2.0000      -0.353943        -9.6313 
 114   2.0000      -0.349750        -9.5172 
 115   2.0000      -0.348426        -9.4811 
 116   2.0000      -0.345050        -9.3893 
 117   2.0000      -0.344958        -9.3868 
 118   2.0000      -0.344818        -9.3830 
 119   2.0000      -0.344519        -9.3748 
 120   2.0000      -0.342432        -9.3180 
 121   2.0000      -0.338747        -9.2178 
 122   2.0000      -0.336230        -9.1493 
 123   2.0000      -0.331292        -9.0149 
 124   2.0000      -0.330745        -9.0000 
 125   2.0000      -0.326026        -8.8716 
 126   2.0000      -0.323974        -8.8158 
 127   2.0000      -0.322414        -8.7733 
 128   2.0000      -0.317645        -8.6436 
 129   2.0000      -0.315289        -8.5795 
 130   2.0000      -0.310751        -8.4560 
 131   2.0000      -0.307428        -8.3655 
 132   2.0000      -0.301852        -8.2138 
 133   2.0000      -0.300270        -8.1708 
 134   2.0000      -0.299664        -8.1543 
 135   2.0000      -0.295732        -8.0473 
 136   2.0000      -0.289464        -7.8767 
 137   2.0000      -0.283707        -7.7201 
 138   2.0000      -0.278747        -7.5851 
 139   2.0000      -0.274625        -7.4729 
 140   2.0000      -0.262841        -7.1523 
 141   2.0000      -0.258664        -7.0386 
 142   2.0000      -0.250696        -6.8218 
 143   2.0000      -0.248714        -6.7679 
 144   2.0000      -0.234001        -6.3675 
 145   0.0000      -0.007672        -0.2088 
 146   0.0000      -0.006008        -0.1635 
 147   0.0000      -0.000296        -0.0081 
 148   0.0000       0.002835         0.0771 
 149   0.0000       0.004546         0.1237 
 150   0.0000       0.007051         0.1919 
 151   0.0000       0.010457         0.2846 
 152   0.0000       0.010995         0.2992 
 153   0.0000       0.012279         0.3341 
 154   0.0000       0.013353         0.3634 
 155   0.0000       0.014996         0.4081 
 156   0.0000       0.017922         0.4877 
 157   0.0000       0.018437         0.5017 
 158   0.0000       0.020203         0.5498 
 159   0.0000       0.025964         0.7065 
 160   0.0000       0.028427         0.7735 
 161   0.0000       0.030908         0.8410 
 162   0.0000       0.032028         0.8715 
 163   0.0000       0.034236         0.9316 
 164   0.0000       0.036689         0.9984 
 165   0.0000       0.037938         1.0323 
 166   0.0000       0.041324         1.1245 
 167   0.0000       0.042208         1.1485 
 168   0.0000       0.045556         1.2396 
 169   0.0000       0.047469         1.2917 
 170   0.0000       0.048179         1.3110 
 171   0.0000       0.050683         1.3792 
 172   0.0000       0.051516         1.4018 
 173   0.0000       0.053149         1.4462 
 174   0.0000       0.053964         1.4684 
 175   0.0000       0.057188         1.5562 
 176   0.0000       0.059984         1.6322 
 177   0.0000       0.061336         1.6690 
 178   0.0000       0.063719         1.7339 
 179   0.0000       0.064532         1.7560 
 180   0.0000       0.069299         1.8857 
 181   0.0000       0.070430         1.9165 
 182   0.0000       0.072115         1.9623 
 183   0.0000       0.075006         2.0410 
 184   0.0000       0.076822         2.0904 
 185   0.0000       0.078197         2.1278 
 186   0.0000       0.080036         2.1779 
 187   0.0000       0.083182         2.2635 
 188   0.0000       0.083742         2.2787 
 189   0.0000       0.086616         2.3569 
 190   0.0000       0.089175         2.4266 
 191   0.0000       0.090592         2.4651 
 192   0.0000       0.091642         2.4937 
 193   0.0000       0.093102         2.5334 
 194   0.0000       0.094824         2.5803 
 195   0.0000       0.095850         2.6082 
 196   0.0000       0.099226         2.7001 
 197   0.0000       0.100678         2.7396 
 198   0.0000       0.102732         2.7955 
 199   0.0000       0.104557         2.8451 
 200   0.0000       0.105713         2.8766 
 201   0.0000       0.106909         2.9091 
 202   0.0000       0.107643         2.9291 
 203   0.0000       0.109928         2.9913 
 204   0.0000       0.110103         2.9961 
 205   0.0000       0.113775         3.0960 
 206   0.0000       0.114052         3.1035 
 207   0.0000       0.116555         3.1716 
 208   0.0000       0.118273         3.2184 
 209   0.0000       0.120099         3.2681 
 210   0.0000       0.120542         3.2801 
 211   0.0000       0.121171         3.2972 
 212   0.0000       0.122911         3.3446 
 213   0.0000       0.124005         3.3744 
 214   0.0000       0.124868         3.3978 
 215   0.0000       0.125869         3.4251 
 216   0.0000       0.127512         3.4698 
 217   0.0000       0.129055         3.5118 
 218   0.0000       0.130226         3.5436 
 219   0.0000       0.132172         3.5966 
 220   0.0000       0.132839         3.6147 
 221   0.0000       0.135252         3.6804 
[...]
254:   3070.85   0.000526    2.66  0.000053  (-0.005198  0.004776  0.001916)
255:   3074.48   0.013466   68.05  0.001367  ( 0.014350 -0.009771 -0.032641)
256:   3076.94   0.003113   15.73  0.000316  ( 0.015686 -0.004035 -0.007308)
257:   3080.58   0.001506    7.61  0.000153  ( 0.006723  0.005298  0.008907)
258:   3081.55   0.011643   58.84  0.001179  (-0.030532  0.003053  0.015415)
259:   3083.05   0.058190  294.07  0.005890  (-0.023478  0.018966 -0.070562)
260:   3085.34   0.025208  127.39  0.002550  (-0.026136 -0.019157  0.038724)
261:   3093.87   0.008995   45.45  0.000907  (-0.026698  0.013854 -0.001588)
262:   3094.79   0.012945   65.42  0.001305  ( 0.004137 -0.028444  0.021889)
263:   3099.16   0.034294  173.31  0.003453  ( 0.028742 -0.006026  0.050900)
264:   3100.38   0.018670   94.35  0.001879  ( 0.020214 -0.038268 -0.002470)
265:   3106.15   0.015199   76.81  0.001527  ( 0.017490  0.017642 -0.030164)
266:   3109.02   0.008270   41.79  0.000830  (-0.006328 -0.027456 -0.006018)
267:   3113.90   0.013026   65.83  0.001305  (-0.005125 -0.035729  0.001601)
268:   3118.43   0.011729   59.27  0.001174  (-0.030891 -0.014746  0.001429)
269:   3124.80   0.004050   20.47  0.000404  ( 0.001802  0.014581  0.013733)
270:   3128.25   0.009630   48.66  0.000961  (-0.016911  0.024122  0.009630)
271:   3135.53   0.010808   54.62  0.001076  ( 0.021804  0.009051  0.022767)
272:   3136.89   0.010469   52.90  0.001041  (-0.016748  0.027447  0.002761)
273:   3139.47   0.003655   18.47  0.000363  ( 0.009302 -0.004281 -0.016077)
274:   3139.88   0.000138    0.70  0.000014  (-0.002294 -0.002582  0.001355)
275:   3140.26   0.000130    0.66  0.000013  (-0.003205  0.001542  0.000560)
276:   3140.33   0.000122    0.62  0.000012  ( 0.000875  0.000920  0.003245)
277:   3140.84   0.000133    0.67  0.000013  ( 0.000347 -0.000662  0.003552)
278:   3148.87   0.009567   48.35  0.000948  ( 0.018902  0.024149 -0.002763)
279:   3208.93   0.006589   33.30  0.000641  ( 0.000012  0.019364 -0.016304)
280:   3654.61   0.171450  866.44  0.014640  ( 0.075372 -0.091545 -0.024055)
281:   3664.54   0.166172  839.76  0.014151  (-0.043161 -0.110481 -0.009051)

* The epsilon (eps) is given for a Dirac delta lineshape.
** The dipole moment derivative (T) already includes vibrational overlap.

The first frequency considered to be a vibration is 9
The total number of vibrations considered is 273


--------------------------
THERMOCHEMISTRY AT 298.15K
--------------------------

Temperature         ... 298.15 K
Pressure            ... 1.00 atm
Total Mass          ... 524.83 AMU

Throughout the following assumptions are being made:
  (1) The electronic state is orbitally nondegenerate
  (2) There are no thermally accessible electronically excited states
  (3) Hindered rotations indicated by low frequency modes are not
      treated as such but are treated as vibrations and this may
      cause some error
  (4) All equations used are the standard statistical mechanics
      equations for an ideal gas
  (5) All vibrations are strictly harmonic

freq.       5.89  E(vib)   ...       0.58 
freq.       9.01  E(vib)   ...       0.58 
freq.      13.68  E(vib)   ...       0.57 
freq.      22.20  E(vib)   ...       0.56 
freq.      33.39  E(vib)   ...       0.55 
freq.      39.01  E(vib)   ...       0.54 
freq.      43.50  E(vib)   ...       0.53 
freq.      45.40  E(vib)   ...       0.53 
freq.      51.24  E(vib)   ...       0.52 
freq.      54.89  E(vib)   ...       0.52 
freq.      66.67  E(vib)   ...       0.50 
freq.      69.38  E(vib)   ...       0.50 
freq.      76.50  E(vib)   ...       0.49 
freq.      84.13  E(vib)   ...       0.48 
freq.      92.90  E(vib)   ...       0.47 
freq.      96.58  E(vib)   ...       0.47 
freq.     111.54  E(vib)   ...       0.45 
freq.     124.86  E(vib)   ...       0.43 
freq.     135.32  E(vib)   ...       0.42 
freq.     158.32  E(vib)   ...       0.39 
freq.     170.04  E(vib)   ...       0.38 
freq.     175.87  E(vib)   ...       0.38 
freq.     179.71  E(vib)   ...       0.37 
freq.     186.20  E(vib)   ...       0.37 
freq.     197.51  E(vib)   ...       0.35 
freq.     208.71  E(vib)   ...       0.34 
freq.     236.99  E(vib)   ...       0.32 
freq.     239.94  E(vib)   ...       0.31 
freq.     249.04  E(vib)   ...       0.31 
freq.     256.59  E(vib)   ...       0.30 
freq.     264.09  E(vib)   ...       0.29 
freq.     267.52  E(vib)   ...       0.29 
freq.     268.15  E(vib)   ...       0.29 
freq.     277.97  E(vib)   ...       0.28 
freq.     286.47  E(vib)   ...       0.27 
freq.     295.35  E(vib)   ...       0.27 
freq.     296.81  E(vib)   ...       0.27 
freq.     298.95  E(vib)   ...       0.26 
freq.     310.61  E(vib)   ...       0.26 
freq.     320.28  E(vib)   ...       0.25 
freq.     321.04  E(vib)   ...       0.25 
freq.     331.35  E(vib)   ...       0.24 
freq.     347.39  E(vib)   ...       0.23 
freq.     354.61  E(vib)   ...       0.22 
freq.     367.72  E(vib)   ...       0.21 
freq.     373.50  E(vib)   ...       0.21 
freq.     375.10  E(vib)   ...       0.21 
freq.     393.92  E(vib)   ...       0.20 
freq.     400.06  E(vib)   ...       0.19 
freq.     400.41  E(vib)   ...       0.19 
freq.     402.24  E(vib)   ...       0.19 
freq.     403.24  E(vib)   ...       0.19 
freq.     405.39  E(vib)   ...       0.19 
freq.     405.86  E(vib)   ...       0.19 
freq.     438.40  E(vib)   ...       0.17 
freq.     445.39  E(vib)   ...       0.17 
freq.     452.92  E(vib)   ...       0.16 
freq.     457.86  E(vib)   ...       0.16 
freq.     464.93  E(vib)   ...       0.16 
freq.     478.16  E(vib)   ...       0.15 
freq.     482.09  E(vib)   ...       0.15 
freq.     511.14  E(vib)   ...       0.14 
freq.     518.31  E(vib)   ...       0.13 
freq.     527.45  E(vib)   ...       0.13 
freq.     532.24  E(vib)   ...       0.13 
freq.     539.04  E(vib)   ...       0.12 
freq.     541.22  E(vib)   ...       0.12 
freq.     551.99  E(vib)   ...       0.12 
freq.     554.48  E(vib)   ...       0.12 
freq.     601.58  E(vib)   ...       0.10 
freq.     606.02  E(vib)   ...       0.10 
freq.     614.74  E(vib)   ...       0.10 
freq.     641.11  E(vib)   ...       0.09 
freq.     661.08  E(vib)   ...       0.08 
freq.     680.14  E(vib)   ...       0.08 
freq.     703.97  E(vib)   ...       0.07 
freq.     728.60  E(vib)   ...       0.06 
freq.     733.81  E(vib)   ...       0.06 
freq.     747.53  E(vib)   ...       0.06 
freq.     749.08  E(vib)   ...       0.06 
freq.     774.15  E(vib)   ...       0.05 
freq.     782.03  E(vib)   ...       0.05 
freq.     804.33  E(vib)   ...       0.05 
freq.     826.86  E(vib)   ...       0.04 
freq.     846.21  E(vib)   ...       0.04 
freq.     859.22  E(vib)   ...       0.04 
freq.     863.60  E(vib)   ...       0.04 
freq.     877.24  E(vib)   ...       0.04 
freq.     884.43  E(vib)   ...       0.04 
freq.     897.55  E(vib)   ...       0.03 
freq.     901.03  E(vib)   ...       0.03 
freq.     907.76  E(vib)   ...       0.03 
freq.     915.01  E(vib)   ...       0.03 
freq.     919.21  E(vib)   ...       0.03 
freq.     927.15  E(vib)   ...       0.03 
freq.     927.43  E(vib)   ...       0.03 
freq.     927.63  E(vib)   ...       0.03 
freq.     931.67  E(vib)   ...       0.03 
freq.     934.30  E(vib)   ...       0.03 
freq.     938.73  E(vib)   ...       0.03 
freq.     953.34  E(vib)   ...       0.03 
freq.     958.62  E(vib)   ...       0.03 
freq.     963.92  E(vib)   ...       0.03 
freq.     974.08  E(vib)   ...       0.03 
freq.     980.91  E(vib)   ...       0.02 
freq.     986.00  E(vib)   ...       0.02 
freq.     995.04  E(vib)   ...       0.02 
freq.    1003.55  E(vib)   ...       0.02 
freq.    1005.48  E(vib)   ...       0.02 
freq.    1011.08  E(vib)   ...       0.02 
freq.    1017.98  E(vib)   ...       0.02 
freq.    1022.01  E(vib)   ...       0.02 
freq.    1027.98  E(vib)   ...       0.02 
freq.    1029.30  E(vib)   ...       0.02 
freq.    1033.26  E(vib)   ...       0.02 
freq.    1045.26  E(vib)   ...       0.02 
freq.    1049.26  E(vib)   ...       0.02 
freq.    1049.96  E(vib)   ...       0.02 
freq.    1050.35  E(vib)   ...       0.02 
freq.    1050.38  E(vib)   ...       0.02 
freq.    1050.52  E(vib)   ...       0.02 
freq.    1061.46  E(vib)   ...       0.02 
freq.    1068.56  E(vib)   ...       0.02 
freq.    1078.15  E(vib)   ...       0.02 
freq.    1081.92  E(vib)   ...       0.02 
freq.    1090.58  E(vib)   ...       0.02 
freq.    1097.62  E(vib)   ...       0.02 
freq.    1109.84  E(vib)   ...       0.02 
freq.    1115.54  E(vib)   ...       0.01 
freq.    1121.21  E(vib)   ...       0.01 
freq.    1128.86  E(vib)   ...       0.01 
freq.    1135.16  E(vib)   ...       0.01 
freq.    1145.15  E(vib)   ...       0.01 
freq.    1147.56  E(vib)   ...       0.01 
freq.    1152.32  E(vib)   ...       0.01 
freq.    1161.73  E(vib)   ...       0.01 
freq.    1166.84  E(vib)   ...       0.01 
freq.    1178.82  E(vib)   ...       0.01 
freq.    1193.40  E(vib)   ...       0.01 
freq.    1201.76  E(vib)   ...       0.01 
freq.    1209.65  E(vib)   ...       0.01 
freq.    1217.73  E(vib)   ...       0.01 
freq.    1218.07  E(vib)   ...       0.01 
freq.    1221.87  E(vib)   ...       0.01 
freq.    1228.81  E(vib)   ...       0.01 
freq.    1240.09  E(vib)   ...       0.01 
freq.    1252.17  E(vib)   ...       0.01 
freq.    1259.99  E(vib)   ...       0.01 
freq.    1264.70  E(vib)   ...       0.01 
freq.    1269.93  E(vib)   ...       0.01 
freq.    1274.13  E(vib)   ...       0.01 
freq.    1291.22  E(vib)   ...       0.01 
freq.    1295.66  E(vib)   ...       0.01 
freq.    1298.68  E(vib)   ...       0.01 
freq.    1308.71  E(vib)   ...       0.01 
freq.    1310.14  E(vib)   ...       0.01 
freq.    1313.78  E(vib)   ...       0.01 
freq.    1327.47  E(vib)   ...       0.01 
freq.    1331.14  E(vib)   ...       0.01 
freq.    1341.71  E(vib)   ...       0.01 
freq.    1343.43  E(vib)   ...       0.01 
freq.    1347.56  E(vib)   ...       0.01 
freq.    1350.87  E(vib)   ...       0.01 
freq.    1359.18  E(vib)   ...       0.01 
freq.    1366.33  E(vib)   ...       0.01 
freq.    1370.04  E(vib)   ...       0.01 
freq.    1370.91  E(vib)   ...       0.01 
freq.    1372.34  E(vib)   ...       0.01 
freq.    1373.83  E(vib)   ...       0.01 
freq.    1377.86  E(vib)   ...       0.01 
freq.    1380.44  E(vib)   ...       0.01 
freq.    1387.14  E(vib)   ...       0.00 
freq.    1388.89  E(vib)   ...       0.00 
freq.    1392.27  E(vib)   ...       0.00 
freq.    1392.94  E(vib)   ...       0.00 
freq.    1393.35  E(vib)   ...       0.00 
freq.    1396.68  E(vib)   ...       0.00 
freq.    1399.64  E(vib)   ...       0.00 
freq.    1402.08  E(vib)   ...       0.00 
freq.    1407.88  E(vib)   ...       0.00 
freq.    1410.71  E(vib)   ...       0.00 
freq.    1413.87  E(vib)   ...       0.00 
freq.    1418.89  E(vib)   ...       0.00 
freq.    1423.46  E(vib)   ...       0.00 
freq.    1426.18  E(vib)   ...       0.00 
freq.    1439.62  E(vib)   ...       0.00 
freq.    1440.14  E(vib)   ...       0.00 
freq.    1440.96  E(vib)   ...       0.00 
freq.    1441.33  E(vib)   ...       0.00 
freq.    1442.07  E(vib)   ...       0.00 
freq.    1447.03  E(vib)   ...       0.00 
freq.    1463.99  E(vib)   ...       0.00 
freq.    1473.26  E(vib)   ...       0.00 
freq.    1474.06  E(vib)   ...       0.00 
freq.    1475.24  E(vib)   ...       0.00 
freq.    1475.65  E(vib)   ...       0.00 
freq.    1477.70  E(vib)   ...       0.00 
freq.    1478.62  E(vib)   ...       0.00 
freq.    1480.66  E(vib)   ...       0.00 
freq.    1482.41  E(vib)   ...       0.00 
freq.    1484.44  E(vib)   ...       0.00 
freq.    1485.64  E(vib)   ...       0.00 
freq.    1487.91  E(vib)   ...       0.00 
freq.    1490.27  E(vib)   ...       0.00 
freq.    1490.77  E(vib)   ...       0.00 
freq.    1492.62  E(vib)   ...       0.00 
freq.    1493.82  E(vib)   ...       0.00 
freq.    1496.13  E(vib)   ...       0.00 
freq.    1500.38  E(vib)   ...       0.00 
freq.    1503.37  E(vib)   ...       0.00 
freq.    1506.32  E(vib)   ...       0.00 
freq.    1509.35  E(vib)   ...       0.00 
freq.    1509.81  E(vib)   ...       0.00 
freq.    1519.20  E(vib)   ...       0.00 
freq.    1680.57  E(vib)   ...       0.00 
freq.    2346.66  E(vib)   ...       0.00 
freq.    2347.24  E(vib)   ...       0.00 
freq.    2978.14  E(vib)   ...       0.00 
freq.    2991.37  E(vib)   ...       0.00 
freq.    3021.49  E(vib)   ...       0.00 
freq.    3022.25  E(vib)   ...       0.00 
freq.    3022.97  E(vib)   ...       0.00 
freq.    3024.90  E(vib)   ...       0.00 
freq.    3026.45  E(vib)   ...       0.00 
freq.    3027.29  E(vib)   ...       0.00 
freq.    3028.35  E(vib)   ...       0.00 
freq.    3031.97  E(vib)   ...       0.00 
freq.    3032.92  E(vib)   ...       0.00 
freq.    3037.57  E(vib)   ...       0.00 
freq.    3038.38  E(vib)   ...       0.00 
freq.    3040.16  E(vib)   ...       0.00 
freq.    3041.07  E(vib)   ...       0.00 
freq.    3042.12  E(vib)   ...       0.00 
freq.    3042.95  E(vib)   ...       0.00 
freq.    3048.82  E(vib)   ...       0.00 
freq.    3051.36  E(vib)   ...       0.00 
freq.    3052.77  E(vib)   ...       0.00 
freq.    3053.11  E(vib)   ...       0.00 
freq.    3053.68  E(vib)   ...       0.00 
freq.    3057.52  E(vib)   ...       0.00 
freq.    3058.05  E(vib)   ...       0.00 
freq.    3060.97  E(vib)   ...       0.00 
freq.    3062.08  E(vib)   ...       0.00 
freq.    3066.88  E(vib)   ...       0.00 
freq.    3070.16  E(vib)   ...       0.00 
freq.    3070.85  E(vib)   ...       0.00 
freq.    3074.48  E(vib)   ...       0.00 
freq.    3076.94  E(vib)   ...       0.00 
freq.    3080.58  E(vib)   ...       0.00 
freq.    3081.55  E(vib)   ...       0.00 
freq.    3083.05  E(vib)   ...       0.00 
freq.    3085.34  E(vib)   ...       0.00 
freq.    3093.87  E(vib)   ...       0.00 
freq.    3094.79  E(vib)   ...       0.00 
freq.    3099.16  E(vib)   ...       0.00 
freq.    3100.38  E(vib)   ...       0.00 
freq.    3106.15  E(vib)   ...       0.00 
freq.    3109.02  E(vib)   ...       0.00 
freq.    3113.90  E(vib)   ...       0.00 
freq.    3118.43  E(vib)   ...       0.00 
freq.    3124.80  E(vib)   ...       0.00 
freq.    3128.25  E(vib)   ...       0.00 
freq.    3135.53  E(vib)   ...       0.00 
freq.    3136.89  E(vib)   ...       0.00 
freq.    3139.47  E(vib)   ...       0.00 
freq.    3139.88  E(vib)   ...       0.00 
freq.    3140.26  E(vib)   ...       0.00 
freq.    3140.33  E(vib)   ...       0.00 
freq.    3140.84  E(vib)   ...       0.00 
freq.    3148.87  E(vib)   ...       0.00 
freq.    3208.93  E(vib)   ...       0.00 
freq.    3654.61  E(vib)   ...       0.00 
freq.    3664.54  E(vib)   ...       0.00 

------------
INNER ENERGY
------------

The inner energy is: U= E(el) + E(ZPE) + E(vib) + E(rot) + E(trans)
    E(el)   - is the total energy from the electronic structure calculation
              = E(kin-el) + E(nuc-el) + E(el-el) + E(nuc-nuc)
    E(ZPE)  - the the zero temperature vibrational energy from the frequency calculation
    E(vib)  - the the finite temperature correction to E(ZPE) due to population
              of excited vibrational states
    E(rot)  - is the rotational thermal energy
    E(trans)- is the translational thermal energy

Summary of contributions to the inner energy U:
Electronic energy                ...  -1588.34220474 Eh
Zero point energy                ...      0.84224717 Eh     528.52 kcal/mol
Thermal vibrational correction   ...      0.03825956 Eh      24.01 kcal/mol
Thermal rotational correction    ...      0.00141627 Eh       0.89 kcal/mol
Thermal translational correction ...      0.00141627 Eh       0.89 kcal/mol
-----------------------------------------------------------------------
Total thermal energy                  -1587.45886547 Eh


Summary of corrections to the electronic energy:
(perhaps to be used in another calculation)
Total thermal correction                  0.04109210 Eh      25.79 kcal/mol
Non-thermal (ZPE) correction              0.84224717 Eh     528.52 kcal/mol
-----------------------------------------------------------------------
Total correction                          0.88333928 Eh     554.30 kcal/mol


--------
ENTHALPY
--------

The enthalpy is H = U + kB*T
                kB is Boltzmann's constant
Total free energy                 ...  -1587.45886547 Eh 
Thermal Enthalpy correction       ...      0.00094421 Eh       0.59 kcal/mol
-----------------------------------------------------------------------
Total Enthalpy                    ...  -1587.45792126 Eh


Note: Only C1 symmetry has been detected, increase convergence thresholds 
      if your molecule has a higher symmetry. Symmetry factor of 1.0 is   
      used for the rotational entropy correction. 
 

Note: Rotational entropy computed according to Herzberg 
Infrared and Raman Spectra, Chapter V,1, Van Nostrand Reinhold, 1945 
Point Group:  C1, Symmetry Number:   1  
Rotational constants in cm-1:     0.004615     0.001521     0.001232 

Vibrational entropy computed according to the QRRHO of S. Grimme
Chem.Eur.J. 2012 18 9955


-------
ENTROPY
-------

The entropy contributions are T*S = T*(S(el)+S(vib)+S(rot)+S(trans))
     S(el)   - electronic entropy
     S(vib)  - vibrational entropy
     S(rot)  - rotational entropy
     S(trans)- translational entropy
The entropies will be listed as multiplied by the temperature to get
units of energy

Electronic entropy                ...      0.00000000 Eh      0.00 kcal/mol
Vibrational entropy               ...      0.06901624 Eh     43.31 kcal/mol
Rotational entropy                ...      0.01827570 Eh     11.47 kcal/mol
Translational entropy             ...      0.02121930 Eh     13.32 kcal/mol
-----------------------------------------------------------------------
Final entropy term                ...      0.10851124 Eh     68.09 kcal/mol

In case the symmetry of your molecule has not been determined correctly
or in case you have a reason to use a different symmetry number we print 
out the resulting rotational entropy values for sn=1,12 :
 --------------------------------------------------------
|  sn= 1 | S(rot)=       0.01827570 Eh     11.47 kcal/mol|
|  sn= 2 | S(rot)=       0.01762124 Eh     11.06 kcal/mol|
|  sn= 3 | S(rot)=       0.01723841 Eh     10.82 kcal/mol|
|  sn= 4 | S(rot)=       0.01696679 Eh     10.65 kcal/mol|
|  sn= 5 | S(rot)=       0.01675610 Eh     10.51 kcal/mol|
|  sn= 6 | S(rot)=       0.01658396 Eh     10.41 kcal/mol|
|  sn= 7 | S(rot)=       0.01643841 Eh     10.32 kcal/mol|
|  sn= 8 | S(rot)=       0.01631233 Eh     10.24 kcal/mol|
|  sn= 9 | S(rot)=       0.01620112 Eh     10.17 kcal/mol|
|  sn=10 | S(rot)=       0.01610164 Eh     10.10 kcal/mol|
|  sn=11 | S(rot)=       0.01601165 Eh     10.05 kcal/mol|
|  sn=12 | S(rot)=       0.01592950 Eh     10.00 kcal/mol|
 --------------------------------------------------------


-------------------
GIBBS FREE ENERGY
-------------------

The Gibbs free energy is G = H - T*S

Total enthalpy                    ...  -1587.45792126 Eh 
Total entropy correction          ...     -0.10851124 Eh    -68.09 kcal/mol
-----------------------------------------------------------------------
Final Gibbs free energy         ...  -1587.56643249 Eh

For completeness - the Gibbs free energy minus the electronic energy
G-E(el)                           ...      0.77577225 Eh    486.80 kcal/mol


Timings for individual modules:

Sum of individual times         ...    16447.545 sec (= 274.126 min)
GTO integral calculation        ...        1.694 sec (=   0.028 min)   0.0 %
SCF iterations                  ...     1241.977 sec (=  20.700 min)   7.6 %
Analytical frequency calculation...    15203.874 sec (= 253.398 min)  92.4 %
                             ****ORCA TERMINATED NORMALLY****
TOTAL RUN TIME: 0 days 4 hours 34 minutes 9 seconds 217 msec
