
                                 *****************
                                 * O   R   C   A *
                                 *****************

                                            #,                                       
                                            ###                                      
                                            ####                                     
                                            #####                                    
                                            ######                                   
                                           ########,                                 
                                     ,,################,,,,,                         
                               ,,#################################,,                 
                          ,,##########################################,,             
                       ,#########################################, ''#####,          
                    ,#############################################,,   '####,        
                  ,##################################################,,,,####,       
                ,###########''''           ''''###############################       
              ,#####''   ,,,,##########,,,,          '''####'''          '####       
            ,##' ,,,,###########################,,,                        '##       
           ' ,,###''''                  '''############,,,                           
         ,,##''                                '''############,,,,        ,,,,,,###''
      ,#''                                            '''#######################'''  
     '                                                          ''''####''''         
             ,#######,   #######,   ,#######,      ##                                
            ,#'     '#,  ##    ##  ,#'     '#,    #''#        ######   ,####,        
            ##       ##  ##   ,#'  ##            #'  '#       #        #'  '#        
            ##       ##  #######   ##           ,######,      #####,   #    #        
            '#,     ,#'  ##    ##  '#,     ,#' ,#      #,         ##   #,  ,#        
             '#######'   ##     ##  '#######'  #'      '#     #####' # '####'        



                  #######################################################
                  #                        -***-                        #
                  #          Department of theory and spectroscopy      #
                  #    Directorship and core code : Frank Neese         #
                  #        Max Planck Institute fuer Kohlenforschung    #
                  #                Kaiser Wilhelm Platz 1               #
                  #                 D-45470 Muelheim/Ruhr               #
                  #                      Germany                        #
                  #                                                     #
                  #                  All rights reserved                #
                  #                        -***-                        #
                  #######################################################


                         Program Version 5.0.4 -  RELEASE  -


 With contributions from (in alphabetic order):
   Daniel Aravena         : Magnetic Suceptibility
   Michael Atanasov       : Ab Initio Ligand Field Theory (pilot matlab implementation)
   Alexander A. Auer      : GIAO ZORA, VPT2 properties, NMR spectrum
   Ute Becker             : Parallelization
   Giovanni Bistoni       : ED, misc. LED, open-shell LED, HFLD
   Martin Brehm           : Molecular dynamics
   Dmytro Bykov           : SCF Hessian
   Vijay G. Chilkuri      : MRCI spin determinant printing, contributions to CSF-ICE
   Dipayan Datta          : RHF DLPNO-CCSD density
   Achintya Kumar Dutta   : EOM-CC, STEOM-CC
   Dmitry Ganyushin       : Spin-Orbit,Spin-Spin,Magnetic field MRCI
   Miquel Garcia          : C-PCM and meta-GGA Hessian, CC/C-PCM, Gaussian charge scheme
   Yang Guo               : DLPNO-NEVPT2, F12-NEVPT2, CIM, IAO-localization
   Andreas Hansen         : Spin unrestricted coupled pair/coupled cluster methods
   Benjamin Helmich-Paris : MC-RPA, TRAH-SCF, COSX integrals
   Lee Huntington         : MR-EOM, pCC
   Robert Izsak           : Overlap fitted RIJCOSX, COSX-SCS-MP3, EOM
   Marcus Kettner         : VPT2
   Christian Kollmar      : KDIIS, OOCD, Brueckner-CCSD(T), CCSD density, CASPT2, CASPT2-K
   Simone Kossmann        : Meta GGA functionals, TD-DFT gradient, OOMP2, MP2 Hessian
   Martin Krupicka        : Initial AUTO-CI
   Lucas Lang             : DCDCAS
   Marvin Lechner         : AUTO-CI (C++ implementation), FIC-MRCC
   Dagmar Lenk            : GEPOL surface, SMD
   Dimitrios Liakos       : Extrapolation schemes; Compound Job, initial MDCI parallelization
   Dimitrios Manganas     : Further ROCIS development; embedding schemes
   Dimitrios Pantazis     : SARC Basis sets
   Anastasios Papadopoulos: AUTO-CI, single reference methods and gradients
   Taras Petrenko         : DFT Hessian,TD-DFT gradient, ASA, ECA, R-Raman, ABS, FL, XAS/XES, NRVS
   Peter Pinski           : DLPNO-MP2, DLPNO-MP2 Gradient
   Christoph Reimann      : Effective Core Potentials
   Marius Retegan         : Local ZFS, SOC
   Christoph Riplinger    : Optimizer, TS searches, QM/MM, DLPNO-CCSD(T), (RO)-DLPNO pert. Triples
   Tobias Risthaus        : Range-separated hybrids, TD-DFT gradient, RPA, STAB
   Michael Roemelt        : Original ROCIS implementation
   Masaaki Saitow         : Open-shell DLPNO-CCSD energy and density
   Barbara Sandhoefer     : DKH picture change effects
   Avijit Sen             : IP-ROCIS
   Kantharuban Sivalingam : CASSCF convergence, NEVPT2, FIC-MRCI
   Bernardo de Souza      : ESD, SOC TD-DFT
   Georgi Stoychev        : AutoAux, RI-MP2 NMR, DLPNO-MP2 response
   Willem Van den Heuvel  : Paramagnetic NMR
   Boris Wezisla          : Elementary symmetry handling
   Frank Wennmohs         : Technical directorship


 We gratefully acknowledge several colleagues who have allowed us to
 interface, adapt or use parts of their codes:
   Stefan Grimme, W. Hujo, H. Kruse, P. Pracht,  : VdW corrections, initial TS optimization,
                  C. Bannwarth, S. Ehlert          DFT functionals, gCP, sTDA/sTD-DF
   Ed Valeev, F. Pavosevic, A. Kumar             : LibInt (2-el integral package), F12 methods
   Garnet Chan, S. Sharma, J. Yang, R. Olivares  : DMRG
   Ulf Ekstrom                                   : XCFun DFT Library
   Mihaly Kallay                                 : mrcc  (arbitrary order and MRCC methods)
   Jiri Pittner, Ondrej Demel                    : Mk-CCSD
   Frank Weinhold                                : gennbo (NPA and NBO analysis)
   Christopher J. Cramer and Donald G. Truhlar   : smd solvation model
   Lars Goerigk                                  : TD-DFT with DH, B97 family of functionals
   V. Asgeirsson, H. Jonsson                     : NEB implementation
   FAccTs GmbH                                   : IRC, NEB, NEB-TS, DLPNO-Multilevel, CI-OPT
                                                   MM, QMMM, 2- and 3-layer-ONIOM, Crystal-QMMM,
                                                   LR-CPCM, SF, NACMEs, symmetry and pop. for TD-DFT,
                                                   nearIR, NL-DFT gradient (VV10), updates on ESD,
                                                   ML-optimized integration grids
   S Lehtola, MJT Oliveira, MAL Marques          : LibXC Library
   Liviu Ungur et al                             : ANISO software


 Your calculation uses the libint2 library for the computation of 2-el integrals
 For citations please refer to: http://libint.valeyev.net

 Your ORCA version has been built with support for libXC version: 5.1.0
 For citations please refer to: https://tddft.org/programs/libxc/

 This ORCA versions uses:
   CBLAS   interface :  Fast vector & matrix operations
   LAPACKE interface :  Fast linear algebra routines
   SCALAPACK package :  Parallel linear algebra routines
   Shared memory     :  Shared parallel matrices
   BLAS/LAPACK       :  OpenBLAS 0.3.15  USE64BITINT DYNAMIC_ARCH NO_AFFINITY Zen SINGLE_THREADED
        Core in use  :  Zen
   Copyright (c) 2011-2014, The OpenBLAS Project


================================================================================

----- Orbital basis set information -----
Your calculation utilizes the basis: 6-31++G(2d,2p)
   H-He, Li-Ne : W. J. Hehre, R. Ditchfield and J.A. Pople, J. Chem. Phys. 56, 2257 (1972).
                 Note: He and Ne are unpublished basis sets taken from the Gaussian program.
                 Note: Li and B from J. D. Dill and J. A. Pople, J. Chem. Phys. 62, 2921 (1975).
   Na - Ar     : M. M. Francl, W. J. Pietro, W. J. Hehre, J. S. Binkley, M. S. Gordon, 
                 D. J. DeFrees and J. A. Pople, J. Chem. Phys. 77, 3654 (1982).
   K - Zn      : V. A. Rassolov, J. A. Pople, M. A. Ratner, and T. L. Windus, J. Chem. Phys. 109, 1223 (1998).
   Additional Pol./Diff. from the 6-311G equivalent.

----- AuxJ basis set information -----
Your calculation utilizes the auxiliary basis: def2/J
   F. Weigend, Phys. Chem. Chem. Phys. 8, 1057 (2006).

================================================================================
                                        WARNINGS
                       Please study these warnings very carefully!
================================================================================

WARNING: Old DensityContainer found on disk!
         Will remove this file - 
         If you want to keep old densities, please start your calculation with a different basename. 


INFO   : the flag for use of the SHARK integral package has been found!

================================================================================
                                       INPUT FILE
================================================================================
NAME = betulin_acetonetrille_freq.inp
|  1> # avogadro generated ORCA file
|  2> # C34H56N2O2 | Frequencies | BLYP/6-31G(d)
|  3> # 
|  4> ! Freq B3LYP 6-31++G(2d,2p) CPCM(Water)
|  5> 
|  6> %maxcore 1792
|  7> 
|  8> %pal
|  9>    nprocs 12
| 10> end
| 11> 
| 12> * xyz 0 1
| 13>    O     -5.855892    1.323716    1.163292
| 14>    O      4.880008   -2.987166    1.061205
| 15>    C     -0.415562   -0.935769    0.028376
| 16>    C      1.010921   -0.764637   -0.702227
| 17>    C     -1.091650    0.483286    0.092354
| 18>    C      1.894120    0.206340    0.172290
| 19>    C     -2.624173    0.563552    0.469940
| 20>    C      3.341082    0.262563   -0.354973
| 21>    C      4.020810   -1.139182   -0.370413
| 22>    C     -3.387566   -0.452830   -0.438639
| 23>    C      1.729188   -2.139034   -0.870227
| 24>    C     -1.334345   -1.901084   -0.761817
| 25>    C     -0.211740    1.466345    0.888957
| 26>    C      1.214905    1.577486    0.327033
| 27>    C      3.210737   -2.054992   -1.297005
| 28>    C     -2.801006   -1.866964   -0.312478
| 29>    C      4.392697    1.185814    0.323108
| 30>    C     -4.962008   -0.413866   -0.378208
| 31>    C     -3.124989    2.008753    0.106533
| 32>    C      5.434167   -0.770967   -0.858095
| 33>    C     -0.228360   -1.553902    1.440188
| 34>    C      0.850008   -0.194240   -2.139097
| 35>    C      5.764846    0.553927   -0.125080
| 36>    C     -2.884253    0.334173    1.976560
| 37>    C     -5.482843    1.051572   -0.200604
| 38>    C     -4.442837    2.058776   -0.690161
| 39>    C      4.134053   -1.761051    1.046664
| 40>    C      4.347028    2.668597    0.002994
| 41>    C     -5.486114   -0.893668   -1.754676
| 42>    C     -5.564747   -1.349230    0.689017
| 43>    C      4.222206    3.085929   -1.442939
| 44>    C      4.476702    3.584083    0.974683
| 45>    H     -1.090819    0.842876   -0.941312
| 46>    H      1.944307   -0.222135    1.177824
| 47>    H      3.303170    0.569465   -1.406582
| 48>    H     -3.144294   -0.131754   -1.461723
| 49>    H      1.187778   -2.734792   -1.612940
| 50>    H      1.679060   -2.706245    0.060554
| 51>    H     -0.951558   -2.924254   -0.674896
| 52>    H     -1.315274   -1.653227   -1.827235
| 53>    H     -0.154755    1.162529    1.939167
| 54>    H     -0.668354    2.461310    0.889851
| 55>    H      1.190301    2.099250   -0.636765
| 56>    H      1.812006    2.204108    0.995520
| 57>    H      3.633397   -3.066486   -1.313889
| 58>    H      3.295290   -1.676250   -2.322027
| 59>    H     -3.365523   -2.564962   -0.939608
| 60>    H     -2.903163   -2.238097    0.711521
| 61>    H      4.302769    1.091784    1.410301
| 62>    H     -2.366077    2.531564   -0.484066
| 63>    H     -3.242508    2.591626    1.024953
| 64>    H      5.411283   -0.610788   -1.942120
| 65>    H      6.168742   -1.555561   -0.658262
| 66>    H     -1.186043   -1.849221    1.867113
| 67>    H      0.379006   -2.460192    1.396938
| 68>    H      0.241189   -0.878645    2.155670
| 69>    H      1.815664   -0.142662   -2.644796
| 70>    H      0.216634   -0.842808   -2.748630
| 71>    H      0.424704    0.808310   -2.172648
| 72>    H      6.390010    0.378960    0.755070
| 73>    H      6.323395    1.235891   -0.771348
| 74>    H     -3.908563    0.607904    2.228490
| 75>    H     -2.727622   -0.698971    2.288753
| 76>    H     -2.221037    0.963111    2.577931
| 77>    H     -6.390218    1.153044   -0.811009
| 78>    H     -4.863322    3.070219   -0.640158
| 79>    H     -4.250412    1.863861   -1.751819
| 80>    H      3.148013   -1.933839    1.485170
| 81>    H      4.667573   -1.081233    1.715342
| 82>    H     -6.579640   -0.959187   -1.747724
| 83>    H     -5.194998   -0.205450   -2.555677
| 84>    H     -5.094196   -1.883301   -2.006308
| 85>    H     -6.655015   -1.248949    0.703559
| 86>    H     -5.333768   -2.392421    0.454714
| 87>    H     -5.199253   -1.138092    1.693952
| 88>    H     -6.378130    2.143549    1.166331
| 89>    H      4.286340   -3.734598    0.881040
| 90>    H      3.233331    2.834250   -1.841360
| 91>    H      4.368475    4.163394   -1.554453
| 92>    H      4.954931    2.571812   -2.075687
| 93>    H      4.500594    4.648109    0.755310
| 94>    H      4.556994    3.294708    2.019181
| 95>    C      2.222582   -7.810911    0.341616
| 96>    C      2.852348   -6.511232    0.529027
| 97>    N      3.353946   -5.477996    0.677025
| 98>    H      2.326540   -8.404795    1.253072
| 99>    H      2.703466   -8.335578   -0.487884
|100>    H      1.161479   -7.676399    0.117302
|101>    C     -9.401110    5.601988    1.395921
|102>    C     -8.398076    4.548270    1.328042
|103>    N     -7.601329    3.709461    1.274373
|104>    H    -10.385192    5.160988    1.573592
|105>    H     -9.417638    6.154595    0.453158
|106>    H     -9.159770    6.287475    2.212124
|107> *
|108> 
|109> 
|110> 
|111>                          ****END OF INPUT****
================================================================================

                       ****************************
                       * Single Point Calculation *
                       ****************************

---------------------------------
CARTESIAN COORDINATES (ANGSTROEM)
---------------------------------
  O     -5.855892    1.323716    1.163292
  O      4.880008   -2.987166    1.061205
  C     -0.415562   -0.935769    0.028376
  C      1.010921   -0.764637   -0.702227
  C     -1.091650    0.483286    0.092354
  C      1.894120    0.206340    0.172290
  C     -2.624173    0.563552    0.469940
  C      3.341082    0.262563   -0.354973
  C      4.020810   -1.139182   -0.370413
  C     -3.387566   -0.452830   -0.438639
  C      1.729188   -2.139034   -0.870227
  C     -1.334345   -1.901084   -0.761817
  C     -0.211740    1.466345    0.888957
  C      1.214905    1.577486    0.327033
  C      3.210737   -2.054992   -1.297005
  C     -2.801006   -1.866964   -0.312478
  C      4.392697    1.185814    0.323108
  C     -4.962008   -0.413866   -0.378208
  C     -3.124989    2.008753    0.106533
  C      5.434167   -0.770967   -0.858095
  C     -0.228360   -1.553902    1.440188
  C      0.850008   -0.194240   -2.139097
  C      5.764846    0.553927   -0.125080
  C     -2.884253    0.334173    1.976560
  C     -5.482843    1.051572   -0.200604
  C     -4.442837    2.058776   -0.690161
  C      4.134053   -1.761051    1.046664
  C      4.347028    2.668597    0.002994
  C     -5.486114   -0.893668   -1.754676
  C     -5.564747   -1.349230    0.689017
  C      4.222206    3.085929   -1.442939
  C      4.476702    3.584083    0.974683
  H     -1.090819    0.842876   -0.941312
  H      1.944307   -0.222135    1.177824
  H      3.303170    0.569465   -1.406582
  H     -3.144294   -0.131754   -1.461723
  H      1.187778   -2.734792   -1.612940
  H      1.679060   -2.706245    0.060554
  H     -0.951558   -2.924254   -0.674896
  H     -1.315274   -1.653227   -1.827235
  H     -0.154755    1.162529    1.939167
  H     -0.668354    2.461310    0.889851
  H      1.190301    2.099250   -0.636765
  H      1.812006    2.204108    0.995520
  H      3.633397   -3.066486   -1.313889
  H      3.295290   -1.676250   -2.322027
  H     -3.365523   -2.564962   -0.939608
  H     -2.903163   -2.238097    0.711521
  H      4.302769    1.091784    1.410301
  H     -2.366077    2.531564   -0.484066
  H     -3.242508    2.591626    1.024953
  H      5.411283   -0.610788   -1.942120
  H      6.168742   -1.555561   -0.658262
  H     -1.186043   -1.849221    1.867113
  H      0.379006   -2.460192    1.396938
  H      0.241189   -0.878645    2.155670
  H      1.815664   -0.142662   -2.644796
  H      0.216634   -0.842808   -2.748630
  H      0.424704    0.808310   -2.172648
  H      6.390010    0.378960    0.755070
  H      6.323395    1.235891   -0.771348
  H     -3.908563    0.607904    2.228490
  H     -2.727622   -0.698971    2.288753
  H     -2.221037    0.963111    2.577931
  H     -6.390218    1.153044   -0.811009
  H     -4.863322    3.070219   -0.640158
  H     -4.250412    1.863861   -1.751819
  H      3.148013   -1.933839    1.485170
  H      4.667573   -1.081233    1.715342
  H     -6.579640   -0.959187   -1.747724
  H     -5.194998   -0.205450   -2.555677
  H     -5.094196   -1.883301   -2.006308
  H     -6.655015   -1.248949    0.703559
  H     -5.333768   -2.392421    0.454714
  H     -5.199253   -1.138092    1.693952
  H     -6.378130    2.143549    1.166331
  H      4.286340   -3.734598    0.881040
  H      3.233331    2.834250   -1.841360
  H      4.368475    4.163394   -1.554453
  H      4.954931    2.571812   -2.075687
  H      4.500594    4.648109    0.755310
  H      4.556994    3.294708    2.019181
  C      2.222582   -7.810911    0.341616
  C      2.852348   -6.511232    0.529027
  N      3.353946   -5.477996    0.677025
  H      2.326540   -8.404795    1.253072
  H      2.703466   -8.335578   -0.487884
  H      1.161479   -7.676399    0.117302
  C     -9.401110    5.601988    1.395921
  C     -8.398076    4.548270    1.328042
  N     -7.601329    3.709461    1.274373
  H    -10.385192    5.160988    1.573592
  H     -9.417638    6.154595    0.453158
  H     -9.159770    6.287475    2.212124

----------------------------
CARTESIAN COORDINATES (A.U.)
----------------------------
  NO LB      ZA    FRAG     MASS         X           Y           Z
   0 O     8.0000    0    15.999  -11.066032    2.501461    2.198303
   1 O     8.0000    0    15.999    9.221879   -5.644926    2.005387
   2 C     6.0000    0    12.011   -0.785298   -1.768347    0.053623
   3 C     6.0000    0    12.011    1.910364   -1.444955   -1.327017
   4 C     6.0000    0    12.011   -2.062920    0.913278    0.174524
   5 C     6.0000    0    12.011    3.579368    0.389926    0.325581
   6 C     6.0000    0    12.011   -4.958968    1.064959    0.888058
   7 C     6.0000    0    12.011    6.313730    0.496172   -0.670802
   8 C     6.0000    0    12.011    7.598230   -2.152742   -0.699979
   9 C     6.0000    0    12.011   -6.401572   -0.855725   -0.828908
  10 C     6.0000    0    12.011    3.267692   -4.042188   -1.644491
  11 C     6.0000    0    12.011   -2.521547   -3.592528   -1.439625
  12 C     6.0000    0    12.011   -0.400131    2.770990    1.679885
  13 C     6.0000    0    12.011    2.295838    2.981017    0.618003
  14 C     6.0000    0    12.011    6.067414   -3.883372   -2.450984
  15 C     6.0000    0    12.011   -5.293134   -3.528051   -0.590498
  16 C     6.0000    0    12.011    8.300994    2.240864    0.610586
  17 C     6.0000    0    12.011   -9.376836   -0.782093   -0.714710
  18 C     6.0000    0    12.011   -5.905373    3.795993    0.201318
  19 C     6.0000    0    12.011   10.269087   -1.456916   -1.621565
  20 C     6.0000    0    12.011   -0.431538   -2.936449    2.721561
  21 C     6.0000    0    12.011    1.606282   -0.367060   -4.042308
  22 C     6.0000    0    12.011   10.893980    1.046770   -0.236367
  23 C     6.0000    0    12.011   -5.450448    0.631495    3.735157
  24 C     6.0000    0    12.011  -10.361072    1.987183   -0.379087
  25 C     6.0000    0    12.011   -8.395745    3.890523   -1.304215
  26 C     6.0000    0    12.011    7.812228   -3.327904    1.977908
  27 C     6.0000    0    12.011    8.214692    5.042917    0.005658
  28 C     6.0000    0    12.011  -10.367253   -1.688788   -3.315857
  29 C     6.0000    0    12.011  -10.515848   -2.549675    1.302053
  30 C     6.0000    0    12.011    7.978813    5.831561   -2.726760
  31 C     6.0000    0    12.011    8.459741    6.772935    1.841884
  32 H     1.0000    0     1.008   -2.061349    1.592805   -1.778822
  33 H     1.0000    0     1.008    3.674208   -0.419774    2.225765
  34 H     1.0000    0     1.008    6.242087    1.076133   -2.658055
  35 H     1.0000    0     1.008   -5.941855   -0.248979   -2.762256
  36 H     1.0000    0     1.008    2.244575   -5.168008   -3.048015
  37 H     1.0000    0     1.008    3.172964   -5.114062    0.114430
  38 H     1.0000    0     1.008   -1.798184   -5.526039   -1.275369
  39 H     1.0000    0     1.008   -2.485508   -3.124146   -3.452974
  40 H     1.0000    0     1.008   -0.292445    2.196861    3.664495
  41 H     1.0000    0     1.008   -1.263006    4.651202    1.681575
  42 H     1.0000    0     1.008    2.249343    3.967008   -1.203311
  43 H     1.0000    0     1.008    3.424195    4.165160    1.881260
  44 H     1.0000    0     1.008    6.866125   -5.794819   -2.482890
  45 H     1.0000    0     1.008    6.227196   -3.167653   -4.387995
  46 H     1.0000    0     1.008   -6.359917   -4.847076   -1.775602
  47 H     1.0000    0     1.008   -5.486183   -4.229390    1.344580
  48 H     1.0000    0     1.008    8.131055    2.063173    2.665083
  49 H     1.0000    0     1.008   -4.471238    4.783963   -0.914752
  50 H     1.0000    0     1.008   -6.127452    4.897463    1.936880
  51 H     1.0000    0     1.008   10.225843   -1.154222   -3.670075
  52 H     1.0000    0     1.008   11.657233   -2.939584   -1.243935
  53 H     1.0000    0     1.008   -2.241296   -3.494521    3.528332
  54 H     1.0000    0     1.008    0.716218   -4.649089    2.639830
  55 H     1.0000    0     1.008    0.455781   -1.660398    4.073626
  56 H     1.0000    0     1.008    3.431108   -0.269592   -4.997940
  57 H     1.0000    0     1.008    0.409379   -1.592676   -5.194158
  58 H     1.0000    0     1.008    0.802574    1.527485   -4.105710
  59 H     1.0000    0     1.008   12.075369    0.716131    1.426876
  60 H     1.0000    0     1.008   11.949485    2.335496   -1.457636
  61 H     1.0000    0     1.008   -7.386114    1.148772    4.211236
  62 H     1.0000    0     1.008   -5.154459   -1.320864    4.325116
  63 H     1.0000    0     1.008   -4.197152    1.820016    4.871584
  64 H     1.0000    0     1.008  -12.075762    2.178937   -1.532585
  65 H     1.0000    0     1.008   -9.190347    5.801873   -1.209723
  66 H     1.0000    0     1.008   -8.032115    3.522187   -3.310458
  67 H     1.0000    0     1.008    5.948882   -3.654426    2.806565
  68 H     1.0000    0     1.008    8.820435   -2.043234    3.241527
  69 H     1.0000    0     1.008  -12.433718   -1.812601   -3.302720
  70 H     1.0000    0     1.008   -9.817123   -0.388244   -4.829530
  71 H     1.0000    0     1.008   -9.626635   -3.558923   -3.791373
  72 H     1.0000    0     1.008  -12.576156   -2.360172    1.329534
  73 H     1.0000    0     1.008  -10.079361   -4.521020    0.859285
  74 H     1.0000    0     1.008   -9.825164   -2.150682    3.201105
  75 H     1.0000    0     1.008  -12.052919    4.050721    2.204046
  76 H     1.0000    0     1.008    8.100009   -7.057367    1.664924
  77 H     1.0000    0     1.008    6.110110    5.355956   -3.479666
  78 H     1.0000    0     1.008    8.255221    7.867674   -2.937490
  79 H     1.0000    0     1.008    9.363463    4.860020   -3.922480
  80 H     1.0000    0     1.008    8.504890    8.783653    1.427329
  81 H     1.0000    0     1.008    8.611471    6.226096    3.815699
  82 C     6.0000    0    12.011    4.200071  -14.760483    0.645561
  83 C     6.0000    0    12.011    5.390157  -12.304445    0.999716
  84 N     7.0000    0    14.007    6.338039  -10.351912    1.279392
  85 H     1.0000    0     1.008    4.396523  -15.882761    2.367963
  86 H     1.0000    0     1.008    5.108810  -15.751960   -0.921967
  87 H     1.0000    0     1.008    2.194877  -14.506292    0.221669
  88 C     6.0000    0    12.011  -17.765523   10.586223    2.637908
  89 C     6.0000    0    12.011  -15.870064    8.594985    2.509636
  90 N     7.0000    0    14.007  -14.364430    7.009865    2.408216
  91 H     1.0000    0     1.008  -19.625169    9.752854    2.973658
  92 H     1.0000    0     1.008  -17.796757   11.630499    0.856345
  93 H     1.0000    0     1.008  -17.309457   11.881606    4.180309

--------------------------------
INTERNAL COORDINATES (ANGSTROEM)
--------------------------------
 O      0   0   0     0.000000000000     0.00000000     0.00000000
 O      1   0   0    11.569514863792     0.00000000     0.00000000
 C      2   1   0     5.772176974050    10.83567915     0.00000000
 C      3   2   1     1.611806642970    46.12361297   140.75319249
 C      3   2   4     1.573183162017   135.03766403   291.58806327
 C      4   3   2     1.577218054493   108.03637906   285.18702253
 C      5   3   2     1.580392534683   118.18173892   211.55440929
 C      6   4   3     1.541060130670   111.01013531   171.96629180
 C      8   6   4     1.557933757452   112.34763519   301.52193660
 C      7   5   3     1.562471453056   107.56646451   310.25085307
 C      4   3   2     1.559839285599   111.27217181    46.20733824
 C      3   2   9     1.549322505989   114.44919745   111.83214667
 C      5   3   2     1.541175832016   110.55014629   344.61474841
 C     13   5   3     1.537344092805   112.76851290    55.87909459
 C      9   8   6     1.534111780769   108.22309181    60.70727942
 C     12   3   2     1.534328582880   113.80649153   143.02799149
 C      8   6   4     1.555017800473   120.49376065   178.32041245
 C     10   7   5     1.576083027769   116.72404713   187.92728186
 C      7   5   3     1.572096448665   107.48023911   194.25414616
 C      9   8   6     1.539803243534   100.86257861   182.76137377
 C      3   2   9     1.552528942673    65.49103392   209.85057165
 C      4   3   2     1.554297631755   111.49228656   164.00639852
 C     20   9   8     1.549839895764   104.50535950    40.03589578
 C      7   5   3     1.546014280801   112.85662031    75.35591887
 C      1   2   9     1.439944516970    71.38641411    48.76518411
 C     25   1   2     1.528312282847   110.80264527   288.10944109
 C      2   1  25     1.435276383116    36.82219923    93.12854346
 C     17   8   6     1.517631067040   117.88911135   281.95830822
 C     18  10   7     1.549051714264   107.23308047   151.58074483
 C     18  10   7     1.541807158902   113.70736423   269.83749687
 C     28  17   8     1.510122104466   118.32434870   313.06651812
 C     28  17   8     1.341308866441   120.74015540   136.10413305
 H      5   3   2     1.094427274065   104.92995637    98.65715759
 H      6   4   3     1.094170089954   107.10707753    55.96694396
 H      8   6   4     1.096133042212   107.81744300    56.64497880
 H     10   7   5     1.099532598342   104.06482152   302.38870075
 H     11   4   3     1.095296755694   108.94602329    69.70955034
 H     11   4   3     1.091143622474   110.18192499   314.00883711
 H     12   3   2     1.095882291357   109.51920516    20.29435094
 H     12   3   2     1.094034876142   110.19347256   263.55484231
 H     13   5   3     1.094756820568   110.39847290   293.93321782
 H     13   5   3     1.094738551188   109.99967903   177.47931207
 H     14  13   5     1.096243409702   109.56867037    70.27197654
 H     14  13   5     1.093645099771   108.94504726   185.91548608
 H     15   9   8     1.096378883914   110.88445373   181.89862877
 H     15   9   8     1.096022268413   108.53251363    65.92465495
 H     16  12   3     1.095067435455   108.11251987   178.98550369
 H     16  12   3     1.093960560687   110.84543417   294.47919474
 H     17   8   6     1.094950823249   109.05294812    44.02726400
 H     19   7   5     1.094571123439   110.05603192    10.83461382
 H     19   7   5     1.094096406122   109.26367671   255.02449246
 H     20   9   8     1.096034301526   109.20991494   281.99937402
 H     20   9   8     1.093216082643   112.78312390   162.62045871
 H     21   3   2     1.089327772470   110.99737225   201.79927087
 H     21   3   2     1.091845036878   111.19454777   319.83222700
 H     21   3   2     1.090120530847   113.71308792    81.32632398
 H     22   4   3     1.091275986642   110.73988767   183.58224119
 H     22   4   3     1.092398074233   110.97540138   301.53492331
 H     22   4   3     1.089548376401   113.98872368    63.23962827
 H     23  20   9     1.093666997072   111.45845263    98.93313638
 H     23  20   9     1.093029830572   111.26918271   217.61447169
 H     24   7   5     1.089774454353   110.25133331   167.80184742
 H     24   7   5     1.090588952881   113.28835694   288.78509018
 H     24   7   5     1.094104908197   110.38818070    49.35573757
 H     25   1   2     1.098280575005   107.15325255   169.47648388
 H     26  25   1     1.096505758071   109.41111043   299.55615291
 H     26  25   1     1.096420059473   108.20630395   184.51120944
 H     27   2   1     1.092894362041   109.25590591    23.75781764
 H     27   2   1     1.092669378727   105.75510812   138.68240963
 H     29  18  10     1.095509097334   110.52481829   175.77147442
 H     29  18  10     1.095442898092   111.42211094   295.74348703
 H     29  18  10     1.093751277410   111.31221077    56.05808754
 H     30  18  10     1.094966693808   110.05272398   178.00572881
 H     30  18  10     1.093844896103   110.35010431   296.46338684
 H     30  18  10     1.089981409614   112.92830040    57.63046615
 H      1   2  27     0.972043163678   144.37394655   358.75390807
 H      2   1  76     0.971367961214    73.81219389   191.68370867
 H     31  28  17     1.095424747715   111.06191307    69.24493513
 H     31  28  17     1.093051151036   111.04120503   189.52781414
 H     31  28  17     1.096162509311   111.58222608   310.45543557
 H     32  28  17     1.086667690450   121.61372762   176.60692334
 H     32  28  17     1.086812204520   121.44228193   356.24944224
 C     77   2   1     4.600695926521   167.86680808   201.75361541
 C     83  77   2     1.456328809273     1.19162313   126.44188098
 N     84  83  77     1.158050341438   179.93384055    17.24760414
 H     83  77   2     1.092820896193   109.94015664    49.58592388
 H     83  77   2     1.092975357611   108.47814789   290.13677483
 H     83  77   2     1.092863132029   110.52103163   170.32468333
 C     76   1   2     4.599121651492   170.93878036   196.68192379
 C     89  76   1     1.456367531676     2.43662629   158.51780500
 N     90  89  76     1.158139318930   179.93665132   341.44342244
 H     89  76   1     1.092915992639   107.24913611   351.84219390
 H     89  76   1     1.092908845880   110.31006251   232.88998559
 H     89  76   1     1.092851664215   111.33405528   111.36857243

---------------------------
INTERNAL COORDINATES (A.U.)
---------------------------
 O      0   0   0     0.000000000000     0.00000000     0.00000000
 O      1   0   0    21.863214594897     0.00000000     0.00000000
 C      2   1   0    10.907833677480    10.83567915     0.00000000
 C      3   2   1     3.045873136048    46.12361297   140.75319249
 C      3   2   4     2.972885334708   135.03766403   291.58806327
 C      4   3   2     2.980510176468   108.03637906   285.18702253
 C      5   3   2     2.986509074644   118.18173892   211.55440929
 C      6   4   3     2.912181602872   111.01013531   171.96629180
 C      8   6   4     2.944068136375   112.34763519   301.52193660
 C      7   5   3     2.952643138345   107.56646451   310.25085307
 C      4   3   2     2.947669062713   111.27217181    46.20733824
 C      3   2   9     2.927795229439   114.44919745   111.83214667
 C      5   3   2     2.912400246728   110.55014629   344.61474841
 C     13   5   3     2.905159309003   112.76851290    55.87909459
 C      9   8   6     2.899051124475   108.22309181    60.70727942
 C     12   3   2     2.899460821090   113.80649153   143.02799149
 C      8   6   4     2.938557776266   120.49376065   178.32041245
 C     10   7   5     2.978365286805   116.72404713   187.92728186
 C      7   5   3     2.970831744088   107.48023911   194.25414616
 C      9   8   6     2.909806430403   100.86257861   182.76137377
 C      3   2   9     2.933854516638    65.49103392   209.85057165
 C      4   3   2     2.937196854619   111.49228656   164.00639852
 C     20   9   8     2.928772954419   104.50535950    40.03589578
 C      7   5   3     2.921543589845   112.85662031    75.35591887
 C      1   2   9     2.721100785116    71.38641411    48.76518411
 C     25   1   2     2.888091661689   110.80264527   288.10944109
 C      2   1  25     2.712279290575    36.82219923    93.12854346
 C     17   8   6     2.867907089037   117.88911135   281.95830822
 C     18  10   7     2.927283507240   107.23308047   151.58074483
 C     18  10   7     2.913593281644   113.70736423   269.83749687
 C     28  17   8     2.853717206222   118.32434870   313.06651812
 C     28  17   8     2.534706418574   120.74015540   136.10413305
 H      5   3   2     2.068167821477   104.92995637    98.65715759
 H      6   4   3     2.067681813941   107.10707753    55.96694396
 H      8   6   4     2.071391256123   107.81744300    56.64497880
 H     10   7   5     2.077815486185   104.06482152   302.38870075
 H     11   4   3     2.069810903633   108.94602329    69.70955034
 H     11   4   3     2.061962619251   110.18192499   314.00883711
 H     12   3   2     2.070917405679   109.51920516    20.29435094
 H     12   3   2     2.067426296866   110.19347256   263.55484231
 H     13   5   3     2.068790574117   110.39847290   293.93321782
 H     13   5   3     2.068756049991   109.99967903   177.47931207
 H     14  13   5     2.071599820454   109.56867037    70.27197654
 H     14  13   5     2.066689726273   108.94504726   185.91548608
 H     15   9   8     2.071855829611   110.88445373   181.89862877
 H     15   9   8     2.071181923980   108.53251363    65.92465495
 H     16  12   3     2.069377551185   108.11251987   178.98550369
 H     16  12   3     2.067285861010   110.84543417   294.47919474
 H     17   8   6     2.069157186052   109.05294812    44.02726400
 H     19   7   5     2.068439657398   110.05603192    10.83461382
 H     19   7   5     2.067542571679   109.26367671   255.02449246
 H     20   9   8     2.071204663268   109.20991494   281.99937402
 H     20   9   8     2.065879001394   112.78312390   162.62045871
 H     21   3   2     2.058531160043   110.99737225   201.79927087
 H     21   3   2     2.063288100381   111.19454777   319.83222700
 H     21   3   2     2.060029256266   113.71308792    81.32632398
 H     22   4   3     2.062212751278   110.73988767   183.58224119
 H     22   4   3     2.064333189524   110.97540138   301.53492331
 H     22   4   3     2.058948041056   113.98872368    63.23962827
 H     23  20   9     2.066731106175   111.45845263    98.93313638
 H     23  20   9     2.065527035988   111.26918271   217.61447169
 H     24   7   5     2.059375266471   110.25133331   167.80184742
 H     24   7   5     2.060914445625   113.28835694   288.78509018
 H     24   7   5     2.067558638272   110.38818070    49.35573757
 H     25   1   2     2.075449504966   107.15325255   169.47648388
 H     26  25   1     2.072095587022   109.41111043   299.55615291
 H     26  25   1     2.071933640141   108.20630395   184.51120944
 H     27   2   1     2.065271037563   109.25590591    23.75781764
 H     27   2   1     2.064845880716   105.75510812   138.68240963
 H     29  18  10     2.070212171180   110.52481829   175.77147442
 H     29  18  10     2.070087072744   111.42211094   295.74348703
 H     29  18  10     2.066890372932   111.31221077    56.05808754
 H     30  18  10     2.069187177062   110.05272398   178.00572881
 H     30  18  10     2.067067286623   110.35010431   296.46338684
 H     30  18  10     2.059766355237   112.92830040    57.63046615
 H      1   2  27     1.836895369703   144.37394655   358.75390807
 H      2   1  76     1.835619421960    73.81219389   191.68370867
 H     31  28  17     2.070052773502   111.06191307    69.24493513
 H     31  28  17     2.065567325826   111.04120503   189.52781414
 H     31  28  17     2.071446940869   111.58222608   310.45543557
 H     32  28  17     2.053504333532   121.61372762   176.60692334
 H     32  28  17     2.053777425545   121.44228193   356.24944224
 C     77   2   1     8.694055326572   167.86680808   201.75361541
 C     83  77   2     2.752062610465     1.19162313   126.44188098
 N     84  83  77     2.188397994611   179.93384055    17.24760414
 H     83  77   2     2.065132207231   109.94015664    49.58592388
 H     83  77   2     2.065424097010   108.47814789   290.13677483
 H     83  77   2     2.065212021395   110.52103163   170.32468333
 C     76   1   2     8.691080377907   170.93878036   196.68192379
 C     89  76   1     2.752135785203     2.43662629   158.51780500
 N     90  89  76     2.188566137703   179.93665132   341.44342244
 H     89  76   1     2.065311913469   107.24913611   351.84219390
 H     89  76   1     2.065298408052   110.31006251   232.88998559
 H     89  76   1     2.065190350367   111.33405528   111.36857243

---------------------
BASIS SET INFORMATION
---------------------
There are 4 groups of distinct atoms

 Group   1 Type O   : 11s5p2d contracted to 4s3p2d pattern {6311/311/11}
 Group   2 Type C   : 11s5p2d contracted to 4s3p2d pattern {6311/311/11}
 Group   3 Type H   : 5s2p contracted to 3s2p pattern {311/11}
 Group   4 Type N   : 11s5p2d contracted to 4s3p2d pattern {6311/311/11}

Atom   0O    basis set group =>   1
Atom   1O    basis set group =>   1
Atom   2C    basis set group =>   2
Atom   3C    basis set group =>   2
Atom   4C    basis set group =>   2
Atom   5C    basis set group =>   2
Atom   6C    basis set group =>   2
Atom   7C    basis set group =>   2
Atom   8C    basis set group =>   2
Atom   9C    basis set group =>   2
Atom  10C    basis set group =>   2
Atom  11C    basis set group =>   2
Atom  12C    basis set group =>   2
Atom  13C    basis set group =>   2
Atom  14C    basis set group =>   2
Atom  15C    basis set group =>   2
Atom  16C    basis set group =>   2
Atom  17C    basis set group =>   2
Atom  18C    basis set group =>   2
Atom  19C    basis set group =>   2
Atom  20C    basis set group =>   2
Atom  21C    basis set group =>   2
Atom  22C    basis set group =>   2
Atom  23C    basis set group =>   2
Atom  24C    basis set group =>   2
Atom  25C    basis set group =>   2
Atom  26C    basis set group =>   2
Atom  27C    basis set group =>   2
Atom  28C    basis set group =>   2
Atom  29C    basis set group =>   2
Atom  30C    basis set group =>   2
Atom  31C    basis set group =>   2
Atom  32H    basis set group =>   3
Atom  33H    basis set group =>   3
Atom  34H    basis set group =>   3
Atom  35H    basis set group =>   3
Atom  36H    basis set group =>   3
Atom  37H    basis set group =>   3
Atom  38H    basis set group =>   3
Atom  39H    basis set group =>   3
Atom  40H    basis set group =>   3
Atom  41H    basis set group =>   3
Atom  42H    basis set group =>   3
Atom  43H    basis set group =>   3
Atom  44H    basis set group =>   3
Atom  45H    basis set group =>   3
Atom  46H    basis set group =>   3
Atom  47H    basis set group =>   3
Atom  48H    basis set group =>   3
Atom  49H    basis set group =>   3
Atom  50H    basis set group =>   3
Atom  51H    basis set group =>   3
Atom  52H    basis set group =>   3
Atom  53H    basis set group =>   3
Atom  54H    basis set group =>   3
Atom  55H    basis set group =>   3
Atom  56H    basis set group =>   3
Atom  57H    basis set group =>   3
Atom  58H    basis set group =>   3
Atom  59H    basis set group =>   3
Atom  60H    basis set group =>   3
Atom  61H    basis set group =>   3
Atom  62H    basis set group =>   3
Atom  63H    basis set group =>   3
Atom  64H    basis set group =>   3
Atom  65H    basis set group =>   3
Atom  66H    basis set group =>   3
Atom  67H    basis set group =>   3
Atom  68H    basis set group =>   3
Atom  69H    basis set group =>   3
Atom  70H    basis set group =>   3
Atom  71H    basis set group =>   3
Atom  72H    basis set group =>   3
Atom  73H    basis set group =>   3
Atom  74H    basis set group =>   3
Atom  75H    basis set group =>   3
Atom  76H    basis set group =>   3
Atom  77H    basis set group =>   3
Atom  78H    basis set group =>   3
Atom  79H    basis set group =>   3
Atom  80H    basis set group =>   3
Atom  81H    basis set group =>   3
Atom  82C    basis set group =>   2
Atom  83C    basis set group =>   2
Atom  84N    basis set group =>   4
Atom  85H    basis set group =>   3
Atom  86H    basis set group =>   3
Atom  87H    basis set group =>   3
Atom  88C    basis set group =>   2
Atom  89C    basis set group =>   2
Atom  90N    basis set group =>   4
Atom  91H    basis set group =>   3
Atom  92H    basis set group =>   3
Atom  93H    basis set group =>   3
---------------------------------
AUXILIARY/J BASIS SET INFORMATION
---------------------------------
There are 4 groups of distinct atoms

 Group   1 Type O   : 12s5p4d2f1g contracted to 6s4p3d1f1g pattern {711111/2111/211/2/1}
 Group   2 Type C   : 12s5p4d2f1g contracted to 6s4p3d1f1g pattern {711111/2111/211/2/1}
 Group   3 Type H   : 5s2p1d contracted to 3s1p1d pattern {311/2/1}
 Group   4 Type N   : 12s5p4d2f1g contracted to 6s4p3d1f1g pattern {711111/2111/211/2/1}

Atom   0O    basis set group =>   1
Atom   1O    basis set group =>   1
Atom   2C    basis set group =>   2
Atom   3C    basis set group =>   2
Atom   4C    basis set group =>   2
Atom   5C    basis set group =>   2
Atom   6C    basis set group =>   2
Atom   7C    basis set group =>   2
Atom   8C    basis set group =>   2
Atom   9C    basis set group =>   2
Atom  10C    basis set group =>   2
Atom  11C    basis set group =>   2
Atom  12C    basis set group =>   2
Atom  13C    basis set group =>   2
Atom  14C    basis set group =>   2
Atom  15C    basis set group =>   2
Atom  16C    basis set group =>   2
Atom  17C    basis set group =>   2
Atom  18C    basis set group =>   2
Atom  19C    basis set group =>   2
Atom  20C    basis set group =>   2
Atom  21C    basis set group =>   2
Atom  22C    basis set group =>   2
Atom  23C    basis set group =>   2
Atom  24C    basis set group =>   2
Atom  25C    basis set group =>   2
Atom  26C    basis set group =>   2
Atom  27C    basis set group =>   2
Atom  28C    basis set group =>   2
Atom  29C    basis set group =>   2
Atom  30C    basis set group =>   2
Atom  31C    basis set group =>   2
Atom  32H    basis set group =>   3
Atom  33H    basis set group =>   3
Atom  34H    basis set group =>   3
Atom  35H    basis set group =>   3
Atom  36H    basis set group =>   3
Atom  37H    basis set group =>   3
Atom  38H    basis set group =>   3
Atom  39H    basis set group =>   3
Atom  40H    basis set group =>   3
Atom  41H    basis set group =>   3
Atom  42H    basis set group =>   3
Atom  43H    basis set group =>   3
Atom  44H    basis set group =>   3
Atom  45H    basis set group =>   3
Atom  46H    basis set group =>   3
Atom  47H    basis set group =>   3
Atom  48H    basis set group =>   3
Atom  49H    basis set group =>   3
Atom  50H    basis set group =>   3
Atom  51H    basis set group =>   3
Atom  52H    basis set group =>   3
Atom  53H    basis set group =>   3
Atom  54H    basis set group =>   3
Atom  55H    basis set group =>   3
Atom  56H    basis set group =>   3
Atom  57H    basis set group =>   3
Atom  58H    basis set group =>   3
Atom  59H    basis set group =>   3
Atom  60H    basis set group =>   3
Atom  61H    basis set group =>   3
Atom  62H    basis set group =>   3
Atom  63H    basis set group =>   3
Atom  64H    basis set group =>   3
Atom  65H    basis set group =>   3
Atom  66H    basis set group =>   3
Atom  67H    basis set group =>   3
Atom  68H    basis set group =>   3
Atom  69H    basis set group =>   3
Atom  70H    basis set group =>   3
Atom  71H    basis set group =>   3
Atom  72H    basis set group =>   3
Atom  73H    basis set group =>   3
Atom  74H    basis set group =>   3
Atom  75H    basis set group =>   3
Atom  76H    basis set group =>   3
Atom  77H    basis set group =>   3
Atom  78H    basis set group =>   3
Atom  79H    basis set group =>   3
Atom  80H    basis set group =>   3
Atom  81H    basis set group =>   3
Atom  82C    basis set group =>   2
Atom  83C    basis set group =>   2
Atom  84N    basis set group =>   4
Atom  85H    basis set group =>   3
Atom  86H    basis set group =>   3
Atom  87H    basis set group =>   3
Atom  88C    basis set group =>   2
Atom  89C    basis set group =>   2
Atom  90N    basis set group =>   4
Atom  91H    basis set group =>   3
Atom  92H    basis set group =>   3
Atom  93H    basis set group =>   3

Checking for AutoStart:
The File: betulin_acetonetrille_freq.gbw exists
Trying to determine its content:
     ... Fine, the file contains calculation information
     ... Fine, the calculation information was read
     ... Fine, the file contains a basis set
     ... Fine, the basis set was read
     ... Fine, the file contains a geometry
     ... Fine, the geometry was read
     ... Fine, the file contains a set of orbitals
     ... Fine, the orbitals can be read
     => possible old guess file was deleted
     => GBW file was renamed to GES file
     => GES file is set as startup file
     => Guess is set to MORead
     ... now leaving AutoStart



           ************************************************************
           *        Program running with 12 parallel MPI-processes    *
           *              working on a common directory               *
           ************************************************************
------------------------------------------------------------------------------
                           ORCA GTO INTEGRAL CALCULATION
                           -- RI-GTO INTEGRALS CHOSEN --
------------------------------------------------------------------------------
------------------------------------------------------------------------------
                   ___                                                        
                  /   \      - P O W E R E D   B Y -                         
                 /     \                                                     
                 |  |  |   _    _      __       _____    __    __             
                 |  |  |  | |  | |    /  \     |  _  \  |  |  /  |          
                  \  \/   | |  | |   /    \    | | | |  |  | /  /          
                 / \  \   | |__| |  /  /\  \   | |_| |  |  |/  /          
                |  |  |   |  __  | /  /__\  \  |    /   |      \           
                |  |  |   | |  | | |   __   |  |    \   |  |\   \          
                \     /   | |  | | |  |  |  |  | |\  \  |  | \   \       
                 \___/    |_|  |_| |__|  |__|  |_| \__\ |__|  \__/        
                                                                              
                      - O R C A' S   B I G   F R I E N D -                    
                                      &                                       
                       - I N T E G R A L  F E E D E R -                       
                                                                              
 v1 FN, 2020, v2 2021                                                         
------------------------------------------------------------------------------


Reading SHARK input file betulin_acetonetrille_freq.SHARKINP.tmp ... ok
----------------------
SHARK INTEGRAL PACKAGE
----------------------

Number of atoms                             ...     94
Number of basis functions                   ...   1378
Number of shells                            ...    622
Maximum angular momentum                    ...      2
Integral batch strategy                     ... SHARK/LIBINT Hybrid
RI-J (if used) integral strategy            ... SPLIT-RIJ (Revised 2003 algorithm where possible)
Printlevel                                  ...      1
Contraction scheme used                     ... SEGMENTED contraction
Coulomb Range Separation                    ... NOT USED
Exchange Range Separation                   ... NOT USED
Finite Nucleus Model                        ... NOT USED
Auxiliary Coulomb fitting basis             ... AVAILABLE
   # of basis functions in Aux-J            ...   2478
   # of shells in Aux-J                     ...    850
   Maximum angular momentum in Aux-J        ...      4
Auxiliary J/K fitting basis                 ... NOT available
Auxiliary Correlation fitting basis         ... NOT available
Auxiliary 'external' fitting basis          ... NOT available
Integral threshold                          ...     1.000000e-10
Primitive cut-off                           ...     1.000000e-11
Primitive pair pre-selection threshold      ...     1.000000e-11

Calculating pre-screening integrals         ... done (  0.0 sec) Dimension = 622
Organizing shell pair data                  ... done (  0.7 sec)
Shell pair information
Total number of shell pairs                 ...    193753
Shell pairs after pre-screening             ...    129686
Total number of primitive shell pairs       ...    580392
Primitive shell pairs kept                  ...    256193
          la=0 lb=0:  37930 shell pairs
          la=1 lb=0:  49595 shell pairs
          la=1 lb=1:  15970 shell pairs
          la=2 lb=0:  15297 shell pairs
          la=2 lb=1:   9518 shell pairs
          la=2 lb=2:   1376 shell pairs

Calculating one electron integrals          ... done (  0.1 sec)
Calculating RI/J V-Matrix + Cholesky decomp.... done (  0.2 sec)
Calculating Nuclear repulsion               ... done (  0.0 sec) ENN=   4585.397731320295 Eh

SHARK setup successfully completed in   1.7 seconds

Maximum memory used throughout the entire GTOINT-calculation: 176.0 MB


           ************************************************************
           *        Program running with 12 parallel MPI-processes    *
           *              working on a common directory               *
           ************************************************************
-------------------------------------------------------------------------------
                                 ORCA SCF
-------------------------------------------------------------------------------

------------
SCF SETTINGS
------------
Hamiltonian:
 Density Functional     Method          .... DFT(GTOs)
 Exchange Functional    Exchange        .... B88
   X-Alpha parameter    XAlpha          ....  0.666667
   Becke's b parameter  XBeta           ....  0.004200
 Correlation Functional Correlation     .... LYP
 LDA part of GGA corr.  LDAOpt          .... VWN-5
 Gradients option       PostSCFGGA      .... off
 Hybrid DFT is turned on
   Fraction HF Exchange ScalHFX         ....  0.200000
   Scaling of DF-GGA-X  ScalDFX         ....  0.720000
   Scaling of DF-GGA-C  ScalDFC         ....  0.810000
   Scaling of DF-LDA-C  ScalLDAC        ....  1.000000
   Perturbative correction              ....  0.000000
   Density functional embedding theory  .... OFF
   NL short-range parameter             ....  4.800000
 RI-approximation to the Coulomb term is turned on
   Number of AuxJ basis functions       .... 2478
   RIJ-COSX (HFX calculated with COS-X)).... on


General Settings:
 Integral files         IntName         .... betulin_acetonetrille_freq
 Hartree-Fock type      HFTyp           .... RHF
 Total Charge           Charge          ....    0
 Multiplicity           Mult            ....    1
 Number of Electrons    NEL             ....  290
 Basis Dimension        Dim             .... 1378
 Nuclear Repulsion      ENuc            ....   4585.3977313203 Eh

Convergence Acceleration:
 DIIS                   CNVDIIS         .... on
   Start iteration      DIISMaxIt       ....    12
   Startup error        DIISStart       ....  0.200000
   # of expansion vecs  DIISMaxEq       ....     5
   Bias factor          DIISBfac        ....   1.050
   Max. coefficient     DIISMaxC        ....  10.000
 Trust-Rad. Augm. Hess. CNVTRAH         .... auto
   Auto Start mean grad. ratio tolernc. ....  1.125000
   Auto Start start iteration           ....     1
   Auto Start num. interpolation iter.  ....    10
   Max. Number of Micro iterations      ....    16
   Max. Number of Macro iterations      .... Maxiter - #DIIS iter
   Number of Davidson start vectors     ....     2
   Converg. threshold I  (grad. norm)   ....   5.000e-05
   Converg. threshold II (energy diff.) ....   1.000e-06
   Grad. Scal. Fac. for Micro threshold ....   0.100
   Minimum threshold for Micro iter.    ....   0.010
   NR start threshold (gradient norm)   ....   0.001
   Initial trust radius                 ....   0.400
   Minimum AH scaling param. (alpha)    ....   1.000
   Maximum AH scaling param. (alpha)    .... 1000.000
   Orbital update algorithm             .... Taylor
   White noise on init. David. guess    .... on
   Maximum white noise                  ....   0.010
   Quad. conv. algorithm                .... NR
 SOSCF                  CNVSOSCF        .... on
   Start iteration      SOSCFMaxIt      ....   150
   Startup grad/error   SOSCFStart      ....  0.003300
 Level Shifting         CNVShift        .... on
   Level shift para.    LevelShift      ....    0.2500
   Turn off err/grad.   ShiftErr        ....    0.0010
 Zerner damping         CNVZerner       .... off
 Static damping         CNVDamp         .... on
   Fraction old density DampFac         ....    0.7000
   Max. Damping (<1)    DampMax         ....    0.9800
   Min. Damping (>=0)   DampMin         ....    0.0000
   Turn off err/grad.   DampErr         ....    0.1000
 Fernandez-Rico         CNVRico         .... off

SCF Procedure:
 Maximum # iterations   MaxIter         ....   125
 SCF integral mode      SCFMode         .... Direct
   Integral package                     .... SHARK and LIBINT hybrid scheme
 Reset frequency        DirectResetFreq ....    20
 Integral Threshold     Thresh          ....  1.000e-10 Eh
 Primitive CutOff       TCut            ....  1.000e-11 Eh

Convergence Tolerance:
 Convergence Check Mode ConvCheckMode   .... Total+1el-Energy
 Convergence forced     ConvForced      .... 0
 Energy Change          TolE            ....  1.000e-06 Eh
 1-El. energy change                    ....  1.000e-03 Eh
 Orbital Gradient       TolG            ....  5.000e-05
 Orbital Rotation angle TolX            ....  5.000e-05
 DIIS Error             TolErr          ....  1.000e-06


Diagonalization of the overlap matrix:
Smallest eigenvalue                        ... 3.935e-08
Time for diagonalization                   ...    0.141 sec
Threshold for overlap eigenvalues          ... 1.000e-08
Number of eigenvalues below threshold      ... 0
Time for construction of square roots      ...    0.123 sec
Total time needed                          ...    0.273 sec

---------------------
INITIAL GUESS: MOREAD
---------------------
Guess MOs are being read from file: betulin_acetonetrille_freq.ges
Input Geometry matches current geometry (good)
Input basis set matches current basis set (good)
MOs were renormalized
MOs were reorthogonalized (Cholesky)
                      ------------------
                      INITIAL GUESS DONE (   0.9 sec)
                      ------------------
-------------------
DFT GRID GENERATION
-------------------

General Integration Accuracy     IntAcc      ... 4.388
Radial Grid Type                 RadialGrid  ... OptM3 with GC (2021)
Angular Grid (max. ang.)         AngularGrid ... 4 (Lebedev-302)
Angular grid pruning method      GridPruning ... 4 (adaptive)
Weight generation scheme         WeightScheme... Becke
Basis function cutoff            BFCut       ... 1.0000e-10
Integration weight cutoff        WCut        ... 1.0000e-14
Angular grids for H and He will be reduced by one unit
Partially contracted basis set               ... off
Rotationally invariant grid construction     ... off

Total number of grid points                  ...   412625
Total number of batches                      ...     6493
Average number of points per batch           ...       63
Average number of grid points per atom       ...     4390
Time for grid setup =    2.288 sec

--------------------
COSX GRID GENERATION
--------------------

GRIDX 1
-------
General Integration Accuracy     IntAcc      ... 3.816
Radial Grid Type                 RadialGrid  ... OptM3 with GC (2021)
Angular Grid (max. ang.)         AngularGrid ... 1 (Lebedev-50)
Angular grid pruning method      GridPruning ... 4 (adaptive)
Weight generation scheme         WeightScheme... Becke
Basis function cutoff            BFCut       ... 1.0000e-10
Integration weight cutoff        WCut        ... 1.0000e-14
Angular grids for H and He will be reduced by one unit
Partially contracted basis set               ... on
Rotationally invariant grid construction     ... off

Total number of grid points                  ...    51304
Total number of batches                      ...      852
Average number of points per batch           ...       60
Average number of grid points per atom       ...      546
UseSFitting                                  ... on

GRIDX 2
-------
General Integration Accuracy     IntAcc      ... 4.020
Radial Grid Type                 RadialGrid  ... OptM3 with GC (2021)
Angular Grid (max. ang.)         AngularGrid ... 2 (Lebedev-110)
Angular grid pruning method      GridPruning ... 4 (adaptive)
Weight generation scheme         WeightScheme... Becke
Basis function cutoff            BFCut       ... 1.0000e-10
Integration weight cutoff        WCut        ... 1.0000e-14
Angular grids for H and He will be reduced by one unit
Partially contracted basis set               ... on
Rotationally invariant grid construction     ... off

Total number of grid points                  ...   113603
Total number of batches                      ...     1822
Average number of points per batch           ...       62
Average number of grid points per atom       ...     1209
UseSFitting                                  ... on

GRIDX 3
-------
General Integration Accuracy     IntAcc      ... 4.338
Radial Grid Type                 RadialGrid  ... OptM3 with GC (2021)
Angular Grid (max. ang.)         AngularGrid ... 3 (Lebedev-194)
Angular grid pruning method      GridPruning ... 4 (adaptive)
Weight generation scheme         WeightScheme... Becke
Basis function cutoff            BFCut       ... 1.0000e-10
Integration weight cutoff        WCut        ... 1.0000e-14
Angular grids for H and He will be reduced by one unit
Partially contracted basis set               ... on
Rotationally invariant grid construction     ... off

Total number of grid points                  ...   251151
Total number of batches                      ...     3972
Average number of points per batch           ...       63
Average number of grid points per atom       ...     2672
UseSFitting                                  ... on

Time for X-Grid setup             =    4.472 sec


--------------------
CPCM SOLVATION MODEL
--------------------
CPCM parameters:
  Epsilon                                         ...      80.4000
  Refrac                                          ...       1.3300
  Rsolv                                           ...       1.3000
  Surface type                                    ... GAUSSIAN VDW
  Epsilon function type                           ...         CPCM
Radii:
 Radius for O  used is    3.4469 Bohr (=   1.8240 Ang.)
 Radius for C  used is    3.8550 Bohr (=   2.0400 Ang.)
 Radius for H  used is    2.4944 Bohr (=   1.3200 Ang.)
 Radius for N  used is    3.5149 Bohr (=   1.8600 Ang.)
Calculating surface                               ...        done! (  0.0s)
GEPOL surface points                              ...         4383
GEPOL Volume                                      ...    4623.6141
GEPOL Surface-area                                ...    2216.7808
Calculating surface distance matrix               ...        done! (  0.2s)
Performing Cholesky decomposition & store         ...        done! (  0.6s)
Overall time for CPCM initialization              ...                 0.8s
--------------
SCF ITERATIONS
--------------
ITER       Energy         Delta-E        Max-DP      RMS-DP      [F,P]     Damp
               ***  Starting incremental Fock matrix formation  ***
                      *** Initiating the SOSCF procedure ***
                      *** Re-Reading the Fockian *** 
                      *** Removing any level shift *** 
ITER      Energy       Delta-E        Grad      Rot      Max-DP    RMS-DP
  0  -1588.34273562 -1588.3427356236  0.000000  0.000000  0.002938  0.000008
               *** Restarting incremental Fock matrix formation ***
                 **** Energy Check signals convergence ****
              ***Rediagonalizing the Fockian in SOSCF/NRSCF***

               *****************************************************
               *                     SUCCESS                       *
               *           SCF CONVERGED AFTER   1 CYCLES          *
               *****************************************************

Old exchange energy                            =    -45.203571899 Eh
New exchange energy                            =    -45.203624605 Eh
Exchange energy change after final integration =     -0.000052705 Eh
Total energy after final integration           =  -1588.342788331 Eh
Final COS-X integration done in                =    75.058 sec

----------------
TOTAL SCF ENERGY
----------------

Total Energy       :        -1588.34278833 Eh          -43221.00458 eV

Components:
Nuclear Repulsion  :         4585.39773132 Eh          124775.01571 eV
Electronic Energy  :        -6173.74051965 Eh         -167996.02029 eV
One Electron Energy:       -11283.20578997 Eh         -307031.63873 eV
Two Electron Energy:         5109.46527031 Eh          139035.61844 eV
Max COSX asymmetry :            0.00008968 Eh               0.00244 eV
CPCM Dielectric    :           -0.03898158 Eh              -1.06074 eV

Virial components:
Potential Energy   :        -3167.22679000 Eh          -86184.62250 eV
Kinetic Energy     :         1578.88400167 Eh           42963.61791 eV
Virial Ratio       :            2.00599081


DFT components:
N(Alpha)           :      145.000047128962 electrons
N(Beta)            :      145.000047128962 electrons
N(Total)           :      290.000094257923 electrons
E(X)               :     -179.222878170865 Eh       
E(C)               :      -11.307793522303 Eh       
E(XC)              :     -190.530671693169 Eh       
DFET-embed. en.    :        0.000000000000 Eh       
CPCM Solvation Model Properties:
Surface-charge          :           -0.05705414
Charge-correction       :           -0.00036190 Eh              -0.00985 eV
Free-energy (cav+disp)  :  This term is not implemented in the current solvation scheme

---------------
SCF CONVERGENCE
---------------

  Last Energy change         ...   -2.4056e-09  Tolerance :   1.0000e-06
  Last MAX-Density change    ...    5.6843e-14  Tolerance :   1.0000e-05
  Last RMS-Density change    ...    1.5524e-16  Tolerance :   1.0000e-06
  Last Orbital Gradient      ...    5.7628e-08  Tolerance :   5.0000e-05
  Last Orbital Rotation      ...    1.7317e-07  Tolerance :   5.0000e-05

             **** THE GBW FILE WAS UPDATED (betulin_acetonetrille_freq.gbw) ****
             **** DENSITY betulin_acetonetrille_freq.scfp WAS UPDATED ****
             **** ENERGY FILE WAS UPDATED (betulin_acetonetrille_freq.en.tmp) ****
             **** THE GBW FILE WAS UPDATED (betulin_acetonetrille_freq.gbw) ****
             **** DENSITY betulin_acetonetrille_freq.scfp WAS UPDATED ****
----------------
ORBITAL ENERGIES
----------------

  NO   OCC          E(Eh)            E(eV) 
   0   2.0000     -19.136942      -520.7427 
   1   2.0000     -19.130315      -520.5623 
   2   2.0000     -14.352239      -390.5443 
   3   2.0000     -14.352179      -390.5427 
   4   2.0000     -10.249309      -278.8979 
   5   2.0000     -10.249009      -278.8897 
   6   2.0000     -10.218974      -278.0724 
   7   2.0000     -10.218867      -278.0695 
   8   2.0000     -10.214289      -277.9449 
   9   2.0000     -10.210203      -277.8338 
  10   2.0000     -10.185965      -277.1742 
  11   2.0000     -10.180334      -277.0210 
  12   2.0000     -10.179147      -276.9887 
  13   2.0000     -10.177192      -276.9355 
  14   2.0000     -10.175512      -276.8898 
  15   2.0000     -10.173886      -276.8455 
  16   2.0000     -10.170936      -276.7652 
  17   2.0000     -10.166179      -276.6358 
  18   2.0000     -10.165669      -276.6219 
  19   2.0000     -10.164865      -276.6000 
  20   2.0000     -10.163288      -276.5571 
  21   2.0000     -10.162563      -276.5374 
  22   2.0000     -10.160829      -276.4902 
  23   2.0000     -10.160663      -276.4857 
  24   2.0000     -10.159810      -276.4625 
  25   2.0000     -10.159240      -276.4470 
  26   2.0000     -10.158991      -276.4402 
  27   2.0000     -10.157592      -276.4021 
  28   2.0000     -10.157490      -276.3993 
  29   2.0000     -10.157134      -276.3897 
  30   2.0000     -10.156683      -276.3774 
  31   2.0000     -10.156002      -276.3589 
  32   2.0000     -10.155479      -276.3446 
  33   2.0000     -10.155427      -276.3432 
  34   2.0000     -10.152885      -276.2741 
  35   2.0000     -10.150746      -276.2158 
  36   2.0000     -10.149108      -276.1713 
  37   2.0000     -10.145192      -276.0647 
  38   2.0000      -1.005643       -27.3649 
  39   2.0000      -1.003352       -27.3026 
  40   2.0000      -0.925723       -25.1902 
  41   2.0000      -0.925586       -25.1865 
  42   2.0000      -0.858121       -23.3507 
  43   2.0000      -0.843555       -22.9543 
  44   2.0000      -0.819986       -22.3129 
  45   2.0000      -0.797622       -21.7044 
  46   2.0000      -0.781113       -21.2552 
  47   2.0000      -0.777321       -21.1520 
  48   2.0000      -0.770790       -20.9743 
  49   2.0000      -0.770698       -20.9718 
  50   2.0000      -0.761622       -20.7248 
  51   2.0000      -0.739449       -20.1214 
  52   2.0000      -0.730737       -19.8844 
  53   2.0000      -0.720531       -19.6066 
  54   2.0000      -0.705574       -19.1997 
  55   2.0000      -0.689241       -18.7552 
  56   2.0000      -0.680009       -18.5040 
  57   2.0000      -0.675116       -18.3708 
  58   2.0000      -0.671184       -18.2638 
  59   2.0000      -0.659905       -17.9569 
  60   2.0000      -0.656505       -17.8644 
  61   2.0000      -0.655395       -17.8342 
  62   2.0000      -0.642946       -17.4955 
  63   2.0000      -0.609378       -16.5820 
  64   2.0000      -0.599904       -16.3242 
  65   2.0000      -0.588209       -16.0060 
  66   2.0000      -0.572606       -15.5814 
  67   2.0000      -0.568610       -15.4727 
  68   2.0000      -0.544707       -14.8222 
  69   2.0000      -0.536368       -14.5953 
  70   2.0000      -0.524631       -14.2759 
  71   2.0000      -0.515486       -14.0271 
  72   2.0000      -0.513310       -13.9679 
  73   2.0000      -0.510204       -13.8833 
  74   2.0000      -0.503164       -13.6918 
  75   2.0000      -0.497445       -13.5362 
  76   2.0000      -0.488129       -13.2827 
  77   2.0000      -0.484793       -13.1919 
  78   2.0000      -0.471692       -12.8354 
  79   2.0000      -0.467108       -12.7107 
  80   2.0000      -0.461421       -12.5559 
  81   2.0000      -0.458725       -12.4825 
  82   2.0000      -0.453458       -12.3392 
  83   2.0000      -0.453416       -12.3381 
  84   2.0000      -0.453365       -12.3367 
  85   2.0000      -0.453345       -12.3361 
  86   2.0000      -0.448518       -12.2048 
  87   2.0000      -0.447483       -12.1766 
  88   2.0000      -0.444723       -12.1015 
  89   2.0000      -0.436855       -11.8874 
  90   2.0000      -0.435257       -11.8439 
  91   2.0000      -0.429070       -11.6756 
  92   2.0000      -0.421099       -11.4587 
  93   2.0000      -0.414553       -11.2806 
  94   2.0000      -0.412769       -11.2320 
  95   2.0000      -0.409039       -11.1305 
  96   2.0000      -0.408123       -11.1056 
  97   2.0000      -0.401919       -10.9368 
  98   2.0000      -0.399077       -10.8594 
  99   2.0000      -0.397650       -10.8206 
 100   2.0000      -0.393245       -10.7007 
 101   2.0000      -0.391552       -10.6547 
 102   2.0000      -0.390224       -10.6185 
 103   2.0000      -0.385363       -10.4863 
 104   2.0000      -0.380667       -10.3585 
 105   2.0000      -0.376817       -10.2537 
 106   2.0000      -0.374314       -10.1856 
 107   2.0000      -0.368550       -10.0288 
 108   2.0000      -0.365715        -9.9516 
 109   2.0000      -0.363021        -9.8783 
 110   2.0000      -0.359726        -9.7886 
 111   2.0000      -0.356489        -9.7005 
 112   2.0000      -0.356239        -9.6938 
 113   2.0000      -0.354050        -9.6342 
 114   2.0000      -0.349861        -9.5202 
 115   2.0000      -0.348523        -9.4838 
 116   2.0000      -0.344960        -9.3868 
 117   2.0000      -0.344872        -9.3844 
 118   2.0000      -0.344720        -9.3803 
 119   2.0000      -0.344479        -9.3737 
 120   2.0000      -0.342536        -9.3209 
 121   2.0000      -0.338867        -9.2210 
 122   2.0000      -0.336371        -9.1531 
 123   2.0000      -0.331402        -9.0179 
 124   2.0000      -0.330860        -9.0031 
 125   2.0000      -0.326190        -8.8761 
 126   2.0000      -0.324171        -8.8211 
 127   2.0000      -0.322554        -8.7771 
 128   2.0000      -0.317837        -8.6488 
 129   2.0000      -0.315459        -8.5841 
 130   2.0000      -0.310861        -8.4589 
 131   2.0000      -0.307542        -8.3686 
 132   2.0000      -0.301984        -8.2174 
 133   2.0000      -0.300333        -8.1725 
 134   2.0000      -0.299801        -8.1580 
 135   2.0000      -0.295873        -8.0511 
 136   2.0000      -0.289627        -7.8812 
 137   2.0000      -0.283799        -7.7226 
 138   2.0000      -0.278813        -7.5869 
 139   2.0000      -0.274745        -7.4762 
 140   2.0000      -0.263057        -7.1581 
 141   2.0000      -0.259017        -7.0482 
 142   2.0000      -0.250867        -6.8264 
 143   2.0000      -0.248847        -6.7715 
 144   2.0000      -0.234146        -6.3714 
 145   0.0000      -0.007570        -0.2060 
 146   0.0000      -0.005818        -0.1583 
 147   0.0000      -0.000278        -0.0076 
 148   0.0000       0.002727         0.0742 
 149   0.0000       0.004578         0.1246 
 150   0.0000       0.006995         0.1903 
 151   0.0000       0.010483         0.2853 
 152   0.0000       0.011039         0.3004 
 153   0.0000       0.012336         0.3357 
 154   0.0000       0.013429         0.3654 
 155   0.0000       0.014947         0.4067 
 156   0.0000       0.017844         0.4855 
 157   0.0000       0.018448         0.5020 
 158   0.0000       0.020134         0.5479 
 159   0.0000       0.025939         0.7058 
 160   0.0000       0.028407         0.7730 
 161   0.0000       0.030811         0.8384 
 162   0.0000       0.032006         0.8709 
 163   0.0000       0.034238         0.9317 
 164   0.0000       0.036601         0.9960 
 165   0.0000       0.037912         1.0316 
 166   0.0000       0.041377         1.1259 
 167   0.0000       0.042255         1.1498 
 168   0.0000       0.045716         1.2440 
 169   0.0000       0.047519         1.2931 
 170   0.0000       0.048141         1.3100 
 171   0.0000       0.050662         1.3786 
 172   0.0000       0.051512         1.4017 
 173   0.0000       0.053363         1.4521 
 174   0.0000       0.054112         1.4725 
 175   0.0000       0.057203         1.5566 
 176   0.0000       0.059907         1.6301 
 177   0.0000       0.061325         1.6687 
 178   0.0000       0.063603         1.7307 
 179   0.0000       0.064495         1.7550 
 180   0.0000       0.069215         1.8834 
 181   0.0000       0.070480         1.9179 
 182   0.0000       0.072117         1.9624 
 183   0.0000       0.074955         2.0396 
 184   0.0000       0.076944         2.0938 
 185   0.0000       0.078263         2.1296 
 186   0.0000       0.080082         2.1791 
 187   0.0000       0.083058         2.2601 
 188   0.0000       0.083872         2.2823 
 189   0.0000       0.086502         2.3538 
 190   0.0000       0.089041         2.4229 
 191   0.0000       0.090545         2.4638 
 192   0.0000       0.091429         2.4879 
 193   0.0000       0.093081         2.5329 
 194   0.0000       0.094751         2.5783 
 195   0.0000       0.095828         2.6076 
 196   0.0000       0.099219         2.6999 
 197   0.0000       0.100717         2.7407 
 198   0.0000       0.102656         2.7934 
 199   0.0000       0.104545         2.8448 
 200   0.0000       0.105702         2.8763 
 201   0.0000       0.106801         2.9062 
 202   0.0000       0.107565         2.9270 
 203   0.0000       0.109831         2.9887 
 204   0.0000       0.109887         2.9902 
 205   0.0000       0.113821         3.0972 
 206   0.0000       0.113975         3.1014 
 207   0.0000       0.116514         3.1705 
 208   0.0000       0.118090         3.2134 
 209   0.0000       0.120213         3.2712 
 210   0.0000       0.120349         3.2749 
 211   0.0000       0.121168         3.2972 
 212   0.0000       0.123004         3.3471 
 213   0.0000       0.124079         3.3764 
 214   0.0000       0.124809         3.3962 
 215   0.0000       0.126299         3.4368 
 216   0.0000       0.127627         3.4729 
 217   0.0000       0.129031         3.5111 
 218   0.0000       0.130232         3.5438 
 219   0.0000       0.132213         3.5977 
 220   0.0000       0.133020         3.6197 
 221   0.0000       0.135189         3.6787 
 222   0.0000       0.136831         3.7234 
 223   0.0000       0.137013         3.7283 
 224   0.0000       0.138775         3.7763 
 225   0.0000       0.140506         3.8234 
 226   0.0000       0.141843         3.8598 
 227   0.0000       0.143336         3.9004 
 228   0.0000       0.144056         3.9200 
 229   0.0000       0.144374         3.9286 
 230   0.0000       0.146238         3.9793 
 231   0.0000       0.147024         4.0007 
 232   0.0000       0.148912         4.0521 
 233   0.0000       0.149435         4.0663 
 234   0.0000       0.150324         4.0905 
 235   0.0000       0.151963         4.1351 
 236   0.0000       0.152762         4.1569 
 237   0.0000       0.153602         4.1797 
 238   0.0000       0.157072         4.2741 
 239   0.0000       0.157269         4.2795 
 240   0.0000       0.158059         4.3010 
 241   0.0000       0.158892         4.3237 
 242   0.0000       0.161233         4.3874 
 243   0.0000       0.162999         4.4354 
 244   0.0000       0.163820         4.4578 
 245   0.0000       0.164401         4.4736 
 246   0.0000       0.165037         4.4909 
 247   0.0000       0.165972         4.5163 
 248   0.0000       0.168213         4.5773 
 249   0.0000       0.169931         4.6240 
 250   0.0000       0.171570         4.6686 
 251   0.0000       0.172734         4.7003 
 252   0.0000       0.173311         4.7160 
 253   0.0000       0.173992         4.7346 
 254   0.0000       0.176501         4.8028 
 255   0.0000       0.177367         4.8264 
 256   0.0000       0.177767         4.8373 
 257   0.0000       0.179994         4.8979 
 258   0.0000       0.181229         4.9315 
 259   0.0000       0.182115         4.9556 
 260   0.0000       0.183042         4.9808 
 261   0.0000       0.183339         4.9889 
 262   0.0000       0.185501         5.0477 
 263   0.0000       0.186248         5.0681 
 264   0.0000       0.189198         5.1483 
 265   0.0000       0.190866         5.1937 
 266   0.0000       0.192110         5.2276 
 267   0.0000       0.192721         5.2442 
 268   0.0000       0.194263         5.2862 
 269   0.0000       0.194610         5.2956 
 270   0.0000       0.196249         5.3402 
 271   0.0000       0.198357         5.3976 
 272   0.0000       0.198756         5.4084 
 273   0.0000       0.200139         5.4461 
 274   0.0000       0.200433         5.4541 
 275   0.0000       0.203015         5.5243 
 276   0.0000       0.205349         5.5878 
 277   0.0000       0.205699         5.5974 
 278   0.0000       0.205911         5.6031 
 279   0.0000       0.208864         5.6835 
 280   0.0000       0.209328         5.6961 
 281   0.0000       0.210843         5.7373 
 282   0.0000       0.211711         5.7610 
 283   0.0000       0.212768         5.7897 
 284   0.0000       0.214757         5.8438 
 285   0.0000       0.216282         5.8853 
 286   0.0000       0.216874         5.9014 
 287   0.0000       0.218065         5.9339 
 288   0.0000       0.218805         5.9540 
 289   0.0000       0.220351         5.9961 
 290   0.0000       0.221820         6.0360 
 291   0.0000       0.221976         6.0403 
 292   0.0000       0.223965         6.0944 
 293   0.0000       0.225644         6.1401 
 294   0.0000       0.227338         6.1862 
 295   0.0000       0.227993         6.2040 
 296   0.0000       0.229162         6.2358 
 297   0.0000       0.230715         6.2781 
 298   0.0000       0.231693         6.3047 
 299   0.0000       0.232827         6.3355 
 300   0.0000       0.233706         6.3595 
 301   0.0000       0.234443         6.3795 
 302   0.0000       0.237421         6.4606 
 303   0.0000       0.237691         6.4679 
 304   0.0000       0.238757         6.4969 
 305   0.0000       0.243932         6.6377 
 306   0.0000       0.244704         6.6587 
 307   0.0000       0.245737         6.6869 
 308   0.0000       0.248900         6.7729 
 309   0.0000       0.249356         6.7853 
 310   0.0000       0.251165         6.8346 
 311   0.0000       0.251426         6.8416 
 312   0.0000       0.252462         6.8698 
 313   0.0000       0.255059         6.9405 
 314   0.0000       0.257360         7.0031 
 315   0.0000       0.259379         7.0581 
 316   0.0000       0.260577         7.0906 
 317   0.0000       0.261409         7.1133 
 318   0.0000       0.262883         7.1534 
 319   0.0000       0.263796         7.1782 
 320   0.0000       0.264866         7.2074 
 321   0.0000       0.267016         7.2659 
 322   0.0000       0.267492         7.2788 
 323   0.0000       0.269158         7.3242 
[...]
254:   3071.06   0.001043    5.27  0.000106  ( 0.005374 -0.008565 -0.001935)
255:   3074.33   0.013987   70.69  0.001420  (-0.014455  0.009530  0.033467)
256:   3077.16   0.002872   14.51  0.000291  (-0.014745  0.003959  0.007626)
257:   3080.58   0.001539    7.78  0.000156  (-0.005636 -0.005505 -0.009686)
258:   3081.47   0.012076   61.03  0.001223  ( 0.031503 -0.003420 -0.014793)
259:   3083.03   0.059620  301.29  0.006035  (-0.023643  0.019394 -0.071411)
260:   3085.33   0.025089  126.79  0.002538  ( 0.026347  0.019229 -0.038388)
261:   3093.76   0.009224   46.62  0.000930  ( 0.026981 -0.014120  0.001752)
262:   3094.82   0.013278   67.10  0.001339  (-0.004058  0.028464 -0.022631)
263:   3099.26   0.035484  179.32  0.003573  (-0.027871  0.006899 -0.052426)
264:   3100.38   0.018650   94.25  0.001877  (-0.020150  0.038260  0.002710)
265:   3106.34   0.014556   73.56  0.001462  (-0.018638 -0.017579  0.028388)
266:   3109.13   0.008340   42.15  0.000837  ( 0.006467  0.027597  0.005806)
267:   3113.84   0.013164   66.53  0.001319  ( 0.005606  0.035848 -0.001657)
268:   3118.29   0.011819   59.73  0.001183  ( 0.030930  0.014965 -0.001476)
269:   3124.40   0.004092   20.68  0.000409  ( 0.001857  0.014571  0.013891)
270:   3128.59   0.009999   50.53  0.000997  (-0.017360  0.024702  0.009261)
271:   3135.36   0.011136   56.28  0.001108  ( 0.021106  0.009467  0.023944)
272:   3136.69   0.010444   52.78  0.001039  (-0.016669  0.027467  0.002604)
273:   3139.22   0.003608   18.24  0.000359  ( 0.010562 -0.004439 -0.015081)
274:   3139.64   0.000148    0.75  0.000015  (-0.002544 -0.002816  0.000531)
275:   3140.41   0.000140    0.71  0.000014  ( 0.003283 -0.001692 -0.000502)
276:   3140.64   0.000143    0.72  0.000014  ( 0.000222 -0.000667  0.003705)
277:   3141.06   0.000134    0.67  0.000013  ( 0.000220  0.000218  0.003630)
278:   3148.94   0.009684   48.94  0.000960  ( 0.019183  0.024158 -0.002851)
279:   3208.45   0.006662   33.67  0.000648  (-0.000022  0.019462 -0.016406)
280:   3652.55   0.172643  872.47  0.014750  ( 0.075887 -0.091717 -0.024066)
281:   3663.68   0.167354  845.74  0.014255  (-0.043811 -0.110719 -0.008764)

* The epsilon (eps) is given for a Dirac delta lineshape.
** The dipole moment derivative (T) already includes vibrational overlap.

The first frequency considered to be a vibration is 9
The total number of vibrations considered is 273


--------------------------
THERMOCHEMISTRY AT 298.15K
--------------------------

Temperature         ... 298.15 K
Pressure            ... 1.00 atm
Total Mass          ... 524.83 AMU

Throughout the following assumptions are being made:
  (1) The electronic state is orbitally nondegenerate
  (2) There are no thermally accessible electronically excited states
  (3) Hindered rotations indicated by low frequency modes are not
      treated as such but are treated as vibrations and this may
      cause some error
  (4) All equations used are the standard statistical mechanics
      equations for an ideal gas
  (5) All vibrations are strictly harmonic

freq.       6.21  E(vib)   ...       0.58 
freq.       9.44  E(vib)   ...       0.58 
freq.      14.01  E(vib)   ...       0.57 
freq.      21.75  E(vib)   ...       0.56 
freq.      33.37  E(vib)   ...       0.55 
freq.      39.33  E(vib)   ...       0.54 
freq.      43.37  E(vib)   ...       0.53 
freq.      45.77  E(vib)   ...       0.53 
freq.      50.93  E(vib)   ...       0.52 
freq.      54.99  E(vib)   ...       0.52 
freq.      66.70  E(vib)   ...       0.50 
freq.      69.46  E(vib)   ...       0.50 
freq.      76.39  E(vib)   ...       0.49 
freq.      84.14  E(vib)   ...       0.48 
freq.      92.82  E(vib)   ...       0.47 
freq.      96.43  E(vib)   ...       0.47 
freq.     111.51  E(vib)   ...       0.45 
freq.     124.99  E(vib)   ...       0.43 
freq.     134.84  E(vib)   ...       0.42 
freq.     158.38  E(vib)   ...       0.39 
freq.     170.00  E(vib)   ...       0.38 
freq.     175.58  E(vib)   ...       0.38 
freq.     179.91  E(vib)   ...       0.37 
freq.     185.93  E(vib)   ...       0.37 
freq.     197.67  E(vib)   ...       0.35 
freq.     208.39  E(vib)   ...       0.34 
freq.     236.99  E(vib)   ...       0.32 
freq.     240.11  E(vib)   ...       0.31 
freq.     248.96  E(vib)   ...       0.31 
freq.     256.51  E(vib)   ...       0.30 
freq.     263.98  E(vib)   ...       0.29 
freq.     267.38  E(vib)   ...       0.29 
freq.     268.21  E(vib)   ...       0.29 
freq.     278.06  E(vib)   ...       0.28 
freq.     286.71  E(vib)   ...       0.27 
freq.     295.17  E(vib)   ...       0.27 
freq.     296.66  E(vib)   ...       0.27 
freq.     298.94  E(vib)   ...       0.26 
freq.     310.89  E(vib)   ...       0.26 
freq.     320.19  E(vib)   ...       0.25 
freq.     320.84  E(vib)   ...       0.25 
freq.     331.31  E(vib)   ...       0.24 
freq.     347.29  E(vib)   ...       0.23 
freq.     354.62  E(vib)   ...       0.22 
freq.     367.69  E(vib)   ...       0.21 
freq.     373.39  E(vib)   ...       0.21 
freq.     375.09  E(vib)   ...       0.21 
freq.     393.92  E(vib)   ...       0.20 
freq.     400.08  E(vib)   ...       0.19 
freq.     400.67  E(vib)   ...       0.19 
freq.     402.75  E(vib)   ...       0.19 
freq.     403.55  E(vib)   ...       0.19 
freq.     405.79  E(vib)   ...       0.19 
freq.     406.04  E(vib)   ...       0.19 
freq.     438.26  E(vib)   ...       0.17 
freq.     445.35  E(vib)   ...       0.17 
freq.     452.97  E(vib)   ...       0.16 
freq.     457.80  E(vib)   ...       0.16 
freq.     465.01  E(vib)   ...       0.16 
freq.     478.18  E(vib)   ...       0.15 
freq.     482.04  E(vib)   ...       0.15 
freq.     511.01  E(vib)   ...       0.14 
freq.     518.24  E(vib)   ...       0.13 
freq.     527.38  E(vib)   ...       0.13 
freq.     532.18  E(vib)   ...       0.13 
freq.     536.98  E(vib)   ...       0.12 
freq.     541.25  E(vib)   ...       0.12 
freq.     552.03  E(vib)   ...       0.12 
freq.     554.47  E(vib)   ...       0.12 
freq.     601.55  E(vib)   ...       0.10 
freq.     606.04  E(vib)   ...       0.10 
freq.     614.61  E(vib)   ...       0.10 
freq.     640.96  E(vib)   ...       0.09 
freq.     661.04  E(vib)   ...       0.08 
freq.     680.08  E(vib)   ...       0.08 
freq.     703.99  E(vib)   ...       0.07 
freq.     728.67  E(vib)   ...       0.06 
freq.     733.79  E(vib)   ...       0.06 
freq.     747.55  E(vib)   ...       0.06 
freq.     749.09  E(vib)   ...       0.06 
freq.     774.15  E(vib)   ...       0.05 
freq.     782.06  E(vib)   ...       0.05 
freq.     804.26  E(vib)   ...       0.05 
freq.     826.84  E(vib)   ...       0.04 
freq.     846.18  E(vib)   ...       0.04 
freq.     859.10  E(vib)   ...       0.04 
freq.     863.51  E(vib)   ...       0.04 
freq.     877.18  E(vib)   ...       0.04 
freq.     884.40  E(vib)   ...       0.04 
freq.     897.51  E(vib)   ...       0.03 
freq.     900.99  E(vib)   ...       0.03 
freq.     907.69  E(vib)   ...       0.03 
freq.     914.94  E(vib)   ...       0.03 
freq.     919.15  E(vib)   ...       0.03 
freq.     927.21  E(vib)   ...       0.03 
freq.     927.39  E(vib)   ...       0.03 
freq.     927.57  E(vib)   ...       0.03 
freq.     931.57  E(vib)   ...       0.03 
freq.     934.29  E(vib)   ...       0.03 
freq.     938.66  E(vib)   ...       0.03 
freq.     953.32  E(vib)   ...       0.03 
freq.     958.54  E(vib)   ...       0.03 
freq.     963.82  E(vib)   ...       0.03 
freq.     974.04  E(vib)   ...       0.03 
freq.     980.91  E(vib)   ...       0.02 
freq.     985.84  E(vib)   ...       0.02 
freq.     994.93  E(vib)   ...       0.02 
freq.    1003.44  E(vib)   ...       0.02 
freq.    1005.41  E(vib)   ...       0.02 
freq.    1011.00  E(vib)   ...       0.02 
freq.    1017.90  E(vib)   ...       0.02 
freq.    1021.95  E(vib)   ...       0.02 
freq.    1027.56  E(vib)   ...       0.02 
freq.    1029.06  E(vib)   ...       0.02 
freq.    1032.99  E(vib)   ...       0.02 
freq.    1045.18  E(vib)   ...       0.02 
freq.    1049.35  E(vib)   ...       0.02 
freq.    1049.51  E(vib)   ...       0.02 
freq.    1050.05  E(vib)   ...       0.02 
freq.    1050.23  E(vib)   ...       0.02 
freq.    1050.42  E(vib)   ...       0.02 
freq.    1061.39  E(vib)   ...       0.02 
freq.    1068.24  E(vib)   ...       0.02 
freq.    1078.09  E(vib)   ...       0.02 
freq.    1081.88  E(vib)   ...       0.02 
freq.    1090.45  E(vib)   ...       0.02 
freq.    1097.63  E(vib)   ...       0.02 
freq.    1109.90  E(vib)   ...       0.02 
freq.    1115.44  E(vib)   ...       0.01 
freq.    1121.15  E(vib)   ...       0.01 
freq.    1128.82  E(vib)   ...       0.01 
freq.    1135.11  E(vib)   ...       0.01 
freq.    1145.14  E(vib)   ...       0.01 
freq.    1147.49  E(vib)   ...       0.01 
freq.    1152.30  E(vib)   ...       0.01 
freq.    1161.63  E(vib)   ...       0.01 
freq.    1166.84  E(vib)   ...       0.01 
freq.    1178.79  E(vib)   ...       0.01 
freq.    1193.54  E(vib)   ...       0.01 
freq.    1201.67  E(vib)   ...       0.01 
freq.    1209.60  E(vib)   ...       0.01 
freq.    1217.63  E(vib)   ...       0.01 
freq.    1218.10  E(vib)   ...       0.01 
freq.    1221.81  E(vib)   ...       0.01 
freq.    1228.67  E(vib)   ...       0.01 
freq.    1239.99  E(vib)   ...       0.01 
freq.    1252.08  E(vib)   ...       0.01 
freq.    1259.94  E(vib)   ...       0.01 
freq.    1264.56  E(vib)   ...       0.01 
freq.    1269.82  E(vib)   ...       0.01 
freq.    1274.07  E(vib)   ...       0.01 
freq.    1291.15  E(vib)   ...       0.01 
freq.    1295.62  E(vib)   ...       0.01 
freq.    1298.67  E(vib)   ...       0.01 
freq.    1308.62  E(vib)   ...       0.01 
freq.    1310.23  E(vib)   ...       0.01 
freq.    1313.73  E(vib)   ...       0.01 
freq.    1327.45  E(vib)   ...       0.01 
freq.    1331.08  E(vib)   ...       0.01 
freq.    1341.55  E(vib)   ...       0.01 
freq.    1343.42  E(vib)   ...       0.01 
freq.    1347.54  E(vib)   ...       0.01 
freq.    1350.80  E(vib)   ...       0.01 
freq.    1359.10  E(vib)   ...       0.01 
freq.    1366.29  E(vib)   ...       0.01 
freq.    1369.95  E(vib)   ...       0.01 
freq.    1370.78  E(vib)   ...       0.01 
freq.    1372.26  E(vib)   ...       0.01 
freq.    1373.77  E(vib)   ...       0.01 
freq.    1377.76  E(vib)   ...       0.01 
freq.    1380.34  E(vib)   ...       0.01 
freq.    1387.11  E(vib)   ...       0.00 
freq.    1388.83  E(vib)   ...       0.00 
freq.    1392.12  E(vib)   ...       0.00 
freq.    1392.55  E(vib)   ...       0.00 
freq.    1393.27  E(vib)   ...       0.00 
freq.    1396.54  E(vib)   ...       0.00 
freq.    1399.47  E(vib)   ...       0.00 
freq.    1402.08  E(vib)   ...       0.00 
freq.    1407.75  E(vib)   ...       0.00 
freq.    1410.70  E(vib)   ...       0.00 
freq.    1413.77  E(vib)   ...       0.00 
freq.    1418.36  E(vib)   ...       0.00 
freq.    1423.19  E(vib)   ...       0.00 
freq.    1426.01  E(vib)   ...       0.00 
freq.    1439.14  E(vib)   ...       0.00 
freq.    1439.46  E(vib)   ...       0.00 
freq.    1440.78  E(vib)   ...       0.00 
freq.    1440.86  E(vib)   ...       0.00 
freq.    1441.96  E(vib)   ...       0.00 
freq.    1447.11  E(vib)   ...       0.00 
freq.    1463.75  E(vib)   ...       0.00 
freq.    1473.08  E(vib)   ...       0.00 
freq.    1473.91  E(vib)   ...       0.00 
freq.    1475.10  E(vib)   ...       0.00 
freq.    1475.51  E(vib)   ...       0.00 
freq.    1477.55  E(vib)   ...       0.00 
freq.    1478.41  E(vib)   ...       0.00 
freq.    1480.49  E(vib)   ...       0.00 
freq.    1482.20  E(vib)   ...       0.00 
freq.    1484.27  E(vib)   ...       0.00 
freq.    1485.49  E(vib)   ...       0.00 
freq.    1487.68  E(vib)   ...       0.00 
freq.    1490.04  E(vib)   ...       0.00 
freq.    1490.52  E(vib)   ...       0.00 
freq.    1492.27  E(vib)   ...       0.00 
freq.    1493.60  E(vib)   ...       0.00 
freq.    1495.92  E(vib)   ...       0.00 
freq.    1500.24  E(vib)   ...       0.00 
freq.    1503.14  E(vib)   ...       0.00 
freq.    1506.15  E(vib)   ...       0.00 
freq.    1509.12  E(vib)   ...       0.00 
freq.    1509.53  E(vib)   ...       0.00 
freq.    1518.89  E(vib)   ...       0.00 
freq.    1680.45  E(vib)   ...       0.00 
freq.    2346.20  E(vib)   ...       0.00 
freq.    2346.56  E(vib)   ...       0.00 
freq.    2978.45  E(vib)   ...       0.00 
freq.    2991.79  E(vib)   ...       0.00 
freq.    3021.47  E(vib)   ...       0.00 
freq.    3022.45  E(vib)   ...       0.00 
freq.    3023.03  E(vib)   ...       0.00 
freq.    3024.91  E(vib)   ...       0.00 
freq.    3026.53  E(vib)   ...       0.00 
freq.    3027.50  E(vib)   ...       0.00 
freq.    3028.51  E(vib)   ...       0.00 
freq.    3032.20  E(vib)   ...       0.00 
freq.    3032.89  E(vib)   ...       0.00 
freq.    3037.45  E(vib)   ...       0.00 
freq.    3038.29  E(vib)   ...       0.00 
freq.    3040.21  E(vib)   ...       0.00 
freq.    3041.03  E(vib)   ...       0.00 
freq.    3042.12  E(vib)   ...       0.00 
freq.    3042.98  E(vib)   ...       0.00 
freq.    3049.02  E(vib)   ...       0.00 
freq.    3051.27  E(vib)   ...       0.00 
freq.    3052.91  E(vib)   ...       0.00 
freq.    3053.13  E(vib)   ...       0.00 
freq.    3053.81  E(vib)   ...       0.00 
freq.    3057.76  E(vib)   ...       0.00 
freq.    3057.96  E(vib)   ...       0.00 
freq.    3060.94  E(vib)   ...       0.00 
freq.    3062.40  E(vib)   ...       0.00 
freq.    3066.96  E(vib)   ...       0.00 
freq.    3070.04  E(vib)   ...       0.00 
freq.    3071.06  E(vib)   ...       0.00 
freq.    3074.33  E(vib)   ...       0.00 
freq.    3077.16  E(vib)   ...       0.00 
freq.    3080.58  E(vib)   ...       0.00 
freq.    3081.47  E(vib)   ...       0.00 
freq.    3083.03  E(vib)   ...       0.00 
freq.    3085.33  E(vib)   ...       0.00 
freq.    3093.76  E(vib)   ...       0.00 
freq.    3094.82  E(vib)   ...       0.00 
freq.    3099.26  E(vib)   ...       0.00 
freq.    3100.38  E(vib)   ...       0.00 
freq.    3106.34  E(vib)   ...       0.00 
freq.    3109.13  E(vib)   ...       0.00 
freq.    3113.84  E(vib)   ...       0.00 
freq.    3118.29  E(vib)   ...       0.00 
freq.    3124.40  E(vib)   ...       0.00 
freq.    3128.59  E(vib)   ...       0.00 
freq.    3135.36  E(vib)   ...       0.00 
freq.    3136.69  E(vib)   ...       0.00 
freq.    3139.22  E(vib)   ...       0.00 
freq.    3139.64  E(vib)   ...       0.00 
freq.    3140.41  E(vib)   ...       0.00 
freq.    3140.64  E(vib)   ...       0.00 
freq.    3141.06  E(vib)   ...       0.00 
freq.    3148.94  E(vib)   ...       0.00 
freq.    3208.45  E(vib)   ...       0.00 
freq.    3652.55  E(vib)   ...       0.00 
freq.    3663.68  E(vib)   ...       0.00 

------------
INNER ENERGY
------------

The inner energy is: U= E(el) + E(ZPE) + E(vib) + E(rot) + E(trans)
    E(el)   - is the total energy from the electronic structure calculation
              = E(kin-el) + E(nuc-el) + E(el-el) + E(nuc-nuc)
    E(ZPE)  - the the zero temperature vibrational energy from the frequency calculation
    E(vib)  - the the finite temperature correction to E(ZPE) due to population
              of excited vibrational states
    E(rot)  - is the rotational thermal energy
    E(trans)- is the translational thermal energy

Summary of contributions to the inner energy U:
Electronic energy                ...  -1588.34278833 Eh
Zero point energy                ...      0.84220253 Eh     528.49 kcal/mol
Thermal vibrational correction   ...      0.03826110 Eh      24.01 kcal/mol
Thermal rotational correction    ...      0.00141627 Eh       0.89 kcal/mol
Thermal translational correction ...      0.00141627 Eh       0.89 kcal/mol
-----------------------------------------------------------------------
Total thermal energy                  -1587.45949215 Eh


Summary of corrections to the electronic energy:
(perhaps to be used in another calculation)
Total thermal correction                  0.04109364 Eh      25.79 kcal/mol
Non-thermal (ZPE) correction              0.84220253 Eh     528.49 kcal/mol
-----------------------------------------------------------------------
Total correction                          0.88329618 Eh     554.28 kcal/mol


--------
ENTHALPY
--------

The enthalpy is H = U + kB*T
                kB is Boltzmann's constant
Total free energy                 ...  -1587.45949215 Eh 
Thermal Enthalpy correction       ...      0.00094421 Eh       0.59 kcal/mol
-----------------------------------------------------------------------
Total Enthalpy                    ...  -1587.45854794 Eh


Note: Only C1 symmetry has been detected, increase convergence thresholds 
      if your molecule has a higher symmetry. Symmetry factor of 1.0 is   
      used for the rotational entropy correction. 
 

Note: Rotational entropy computed according to Herzberg 
Infrared and Raman Spectra, Chapter V,1, Van Nostrand Reinhold, 1945 
Point Group:  C1, Symmetry Number:   1  
Rotational constants in cm-1:     0.004616     0.001522     0.001232 

Vibrational entropy computed according to the QRRHO of S. Grimme
Chem.Eur.J. 2012 18 9955


-------
ENTROPY
-------

The entropy contributions are T*S = T*(S(el)+S(vib)+S(rot)+S(trans))
     S(el)   - electronic entropy
     S(vib)  - vibrational entropy
     S(rot)  - rotational entropy
     S(trans)- translational entropy
The entropies will be listed as multiplied by the temperature to get
units of energy

Electronic entropy                ...      0.00000000 Eh      0.00 kcal/mol
Vibrational entropy               ...      0.06897198 Eh     43.28 kcal/mol
Rotational entropy                ...      0.01827507 Eh     11.47 kcal/mol
Translational entropy             ...      0.02121930 Eh     13.32 kcal/mol
-----------------------------------------------------------------------
Final entropy term                ...      0.10846634 Eh     68.06 kcal/mol

In case the symmetry of your molecule has not been determined correctly
or in case you have a reason to use a different symmetry number we print 
out the resulting rotational entropy values for sn=1,12 :
 --------------------------------------------------------
|  sn= 1 | S(rot)=       0.01827507 Eh     11.47 kcal/mol|
|  sn= 2 | S(rot)=       0.01762061 Eh     11.06 kcal/mol|
|  sn= 3 | S(rot)=       0.01723778 Eh     10.82 kcal/mol|
|  sn= 4 | S(rot)=       0.01696616 Eh     10.65 kcal/mol|
|  sn= 5 | S(rot)=       0.01675547 Eh     10.51 kcal/mol|
|  sn= 6 | S(rot)=       0.01658332 Eh     10.41 kcal/mol|
|  sn= 7 | S(rot)=       0.01643778 Eh     10.31 kcal/mol|
|  sn= 8 | S(rot)=       0.01631170 Eh     10.24 kcal/mol|
|  sn= 9 | S(rot)=       0.01620049 Eh     10.17 kcal/mol|
|  sn=10 | S(rot)=       0.01610101 Eh     10.10 kcal/mol|
|  sn=11 | S(rot)=       0.01601102 Eh     10.05 kcal/mol|
|  sn=12 | S(rot)=       0.01592887 Eh     10.00 kcal/mol|
 --------------------------------------------------------


-------------------
GIBBS FREE ENERGY
-------------------

The Gibbs free energy is G = H - T*S

Total enthalpy                    ...  -1587.45854794 Eh 
Total entropy correction          ...     -0.10846634 Eh    -68.06 kcal/mol
-----------------------------------------------------------------------
Final Gibbs free energy         ...  -1587.56701429 Eh

For completeness - the Gibbs free energy minus the electronic energy
G-E(el)                           ...      0.77577405 Eh    486.80 kcal/mol


Timings for individual modules:

Sum of individual times         ...    18476.557 sec (= 307.943 min)
GTO integral calculation        ...        2.151 sec (=   0.036 min)   0.0 %
SCF iterations                  ...      178.927 sec (=   2.982 min)   1.0 %
Analytical frequency calculation...    18295.479 sec (= 304.925 min)  99.0 %
                             ****ORCA TERMINATED NORMALLY****
TOTAL RUN TIME: 0 days 5 hours 7 minutes 58 seconds 227 msec
