
                                 *****************
                                 * O   R   C   A *
                                 *****************

                                            #,                                       
                                            ###                                      
                                            ####                                     
                                            #####                                    
                                            ######                                   
                                           ########,                                 
                                     ,,################,,,,,                         
                               ,,#################################,,                 
                          ,,##########################################,,             
                       ,#########################################, ''#####,          
                    ,#############################################,,   '####,        
                  ,##################################################,,,,####,       
                ,###########''''           ''''###############################       
              ,#####''   ,,,,##########,,,,          '''####'''          '####       
            ,##' ,,,,###########################,,,                        '##       
           ' ,,###''''                  '''############,,,                           
         ,,##''                                '''############,,,,        ,,,,,,###''
      ,#''                                            '''#######################'''  
     '                                                          ''''####''''         
             ,#######,   #######,   ,#######,      ##                                
            ,#'     '#,  ##    ##  ,#'     '#,    #''#        ######   ,####,        
            ##       ##  ##   ,#'  ##            #'  '#       #        #'  '#        
            ##       ##  #######   ##           ,######,      #####,   #    #        
            '#,     ,#'  ##    ##  '#,     ,#' ,#      #,         ##   #,  ,#        
             '#######'   ##     ##  '#######'  #'      '#     #####' # '####'        



                  #######################################################
                  #                        -***-                        #
                  #          Department of theory and spectroscopy      #
                  #    Directorship and core code : Frank Neese         #
                  #        Max Planck Institute fuer Kohlenforschung    #
                  #                Kaiser Wilhelm Platz 1               #
                  #                 D-45470 Muelheim/Ruhr               #
                  #                      Germany                        #
                  #                                                     #
                  #                  All rights reserved                #
                  #                        -***-                        #
                  #######################################################


                         Program Version 5.0.4 -  RELEASE  -


 With contributions from (in alphabetic order):
   Daniel Aravena         : Magnetic Suceptibility
   Michael Atanasov       : Ab Initio Ligand Field Theory (pilot matlab implementation)
   Alexander A. Auer      : GIAO ZORA, VPT2 properties, NMR spectrum
   Ute Becker             : Parallelization
   Giovanni Bistoni       : ED, misc. LED, open-shell LED, HFLD
   Martin Brehm           : Molecular dynamics
   Dmytro Bykov           : SCF Hessian
   Vijay G. Chilkuri      : MRCI spin determinant printing, contributions to CSF-ICE
   Dipayan Datta          : RHF DLPNO-CCSD density
   Achintya Kumar Dutta   : EOM-CC, STEOM-CC
   Dmitry Ganyushin       : Spin-Orbit,Spin-Spin,Magnetic field MRCI
   Miquel Garcia          : C-PCM and meta-GGA Hessian, CC/C-PCM, Gaussian charge scheme
   Yang Guo               : DLPNO-NEVPT2, F12-NEVPT2, CIM, IAO-localization
   Andreas Hansen         : Spin unrestricted coupled pair/coupled cluster methods
   Benjamin Helmich-Paris : MC-RPA, TRAH-SCF, COSX integrals
   Lee Huntington         : MR-EOM, pCC
   Robert Izsak           : Overlap fitted RIJCOSX, COSX-SCS-MP3, EOM
   Marcus Kettner         : VPT2
   Christian Kollmar      : KDIIS, OOCD, Brueckner-CCSD(T), CCSD density, CASPT2, CASPT2-K
   Simone Kossmann        : Meta GGA functionals, TD-DFT gradient, OOMP2, MP2 Hessian
   Martin Krupicka        : Initial AUTO-CI
   Lucas Lang             : DCDCAS
   Marvin Lechner         : AUTO-CI (C++ implementation), FIC-MRCC
   Dagmar Lenk            : GEPOL surface, SMD
   Dimitrios Liakos       : Extrapolation schemes; Compound Job, initial MDCI parallelization
   Dimitrios Manganas     : Further ROCIS development; embedding schemes
   Dimitrios Pantazis     : SARC Basis sets
   Anastasios Papadopoulos: AUTO-CI, single reference methods and gradients
   Taras Petrenko         : DFT Hessian,TD-DFT gradient, ASA, ECA, R-Raman, ABS, FL, XAS/XES, NRVS
   Peter Pinski           : DLPNO-MP2, DLPNO-MP2 Gradient
   Christoph Reimann      : Effective Core Potentials
   Marius Retegan         : Local ZFS, SOC
   Christoph Riplinger    : Optimizer, TS searches, QM/MM, DLPNO-CCSD(T), (RO)-DLPNO pert. Triples
   Tobias Risthaus        : Range-separated hybrids, TD-DFT gradient, RPA, STAB
   Michael Roemelt        : Original ROCIS implementation
   Masaaki Saitow         : Open-shell DLPNO-CCSD energy and density
   Barbara Sandhoefer     : DKH picture change effects
   Avijit Sen             : IP-ROCIS
   Kantharuban Sivalingam : CASSCF convergence, NEVPT2, FIC-MRCI
   Bernardo de Souza      : ESD, SOC TD-DFT
   Georgi Stoychev        : AutoAux, RI-MP2 NMR, DLPNO-MP2 response
   Willem Van den Heuvel  : Paramagnetic NMR
   Boris Wezisla          : Elementary symmetry handling
   Frank Wennmohs         : Technical directorship


 We gratefully acknowledge several colleagues who have allowed us to
 interface, adapt or use parts of their codes:
   Stefan Grimme, W. Hujo, H. Kruse, P. Pracht,  : VdW corrections, initial TS optimization,
                  C. Bannwarth, S. Ehlert          DFT functionals, gCP, sTDA/sTD-DF
   Ed Valeev, F. Pavosevic, A. Kumar             : LibInt (2-el integral package), F12 methods
   Garnet Chan, S. Sharma, J. Yang, R. Olivares  : DMRG
   Ulf Ekstrom                                   : XCFun DFT Library
   Mihaly Kallay                                 : mrcc  (arbitrary order and MRCC methods)
   Jiri Pittner, Ondrej Demel                    : Mk-CCSD
   Frank Weinhold                                : gennbo (NPA and NBO analysis)
   Christopher J. Cramer and Donald G. Truhlar   : smd solvation model
   Lars Goerigk                                  : TD-DFT with DH, B97 family of functionals
   V. Asgeirsson, H. Jonsson                     : NEB implementation
   FAccTs GmbH                                   : IRC, NEB, NEB-TS, DLPNO-Multilevel, CI-OPT
                                                   MM, QMMM, 2- and 3-layer-ONIOM, Crystal-QMMM,
                                                   LR-CPCM, SF, NACMEs, symmetry and pop. for TD-DFT,
                                                   nearIR, NL-DFT gradient (VV10), updates on ESD,
                                                   ML-optimized integration grids
   S Lehtola, MJT Oliveira, MAL Marques          : LibXC Library
   Liviu Ungur et al                             : ANISO software


 Your calculation uses the libint2 library for the computation of 2-el integrals
 For citations please refer to: http://libint.valeyev.net

 Your ORCA version has been built with support for libXC version: 5.1.0
 For citations please refer to: https://tddft.org/programs/libxc/

 This ORCA versions uses:
   CBLAS   interface :  Fast vector & matrix operations
   LAPACKE interface :  Fast linear algebra routines
   SCALAPACK package :  Parallel linear algebra routines
   Shared memory     :  Shared parallel matrices
   BLAS/LAPACK       :  OpenBLAS 0.3.15  USE64BITINT DYNAMIC_ARCH NO_AFFINITY Zen SINGLE_THREADED
        Core in use  :  Zen
   Copyright (c) 2011-2014, The OpenBLAS Project


================================================================================

----- Orbital basis set information -----
Your calculation utilizes the basis: 6-31++G(2d,2p)
   H-He, Li-Ne : W. J. Hehre, R. Ditchfield and J.A. Pople, J. Chem. Phys. 56, 2257 (1972).
                 Note: He and Ne are unpublished basis sets taken from the Gaussian program.
                 Note: Li and B from J. D. Dill and J. A. Pople, J. Chem. Phys. 62, 2921 (1975).
   Na - Ar     : M. M. Francl, W. J. Pietro, W. J. Hehre, J. S. Binkley, M. S. Gordon, 
                 D. J. DeFrees and J. A. Pople, J. Chem. Phys. 77, 3654 (1982).
   K - Zn      : V. A. Rassolov, J. A. Pople, M. A. Ratner, and T. L. Windus, J. Chem. Phys. 109, 1223 (1998).
   Additional Pol./Diff. from the 6-311G equivalent.

----- AuxJ basis set information -----
Your calculation utilizes the auxiliary basis: def2/J
   F. Weigend, Phys. Chem. Chem. Phys. 8, 1057 (2006).

================================================================================
                                        WARNINGS
                       Please study these warnings very carefully!
================================================================================


INFO   : the flag for use of the SHARK integral package has been found!

================================================================================
                                       INPUT FILE
================================================================================
NAME = betulin_optimized.inp
|  1> # avogadro generated ORCA file
|  2> # C30H50O2 | Frequencies | B3LYP/6-31G(d)
|  3> # 
|  4> ! Freq B3LYP 6-31++G(2d,2p) CPCM(Water)
|  5> 
|  6> %maxcore 1472
|  7> 
|  8> %pal
|  9>    nprocs 16
| 10> end
| 11> 
| 12> * xyz 0 1
| 13>    O     -6.032783    1.360645    1.004233
| 14>    O      4.661592   -2.943573    1.460882
| 15>    C     -0.576024   -0.964159    0.174862
| 16>    C      0.859084   -0.858386   -0.549157
| 17>    C     -1.252476    0.454441    0.094043
| 18>    C      1.730983    0.183721    0.251270
| 19>    C     -2.789675    0.564069    0.442539
| 20>    C      3.186233    0.191878   -0.256427
| 21>    C      3.861937   -1.206980   -0.142684
| 22>    C     -3.535565   -0.527406   -0.390613
| 23>    C      1.574628   -2.243927   -0.593368
| 24>    C     -1.480298   -2.004089   -0.533744
| 25>    C     -0.384380    1.509518    0.808427
| 26>    C      1.055964    1.564934    0.272332
| 27>    C      3.063127   -2.197013   -1.001078
| 28>    C     -2.957259   -1.925134   -0.124684
| 29>    C      4.231665    1.165876    0.358500
| 30>    C     -5.110630   -0.483453   -0.374642
| 31>    C     -3.284933    1.974007   -0.045835
| 32>    C      5.283900   -0.885392   -0.637953
| 33>    C     -0.406649   -1.445148    1.642361
| 34>    C      0.719373   -0.411858   -2.031591
| 35>    C      5.608424    0.494466   -0.012137
| 36>    C     -3.070239    0.459354    1.959817
| 37>    C     -5.632214    0.988875   -0.332906
| 38>    C     -4.584412    1.957418   -0.873005
| 39>    C      3.948094   -1.701616    1.324002
| 40>    C      4.197501    2.615879   -0.087514
| 41>    C     -5.601022   -1.071550   -1.720825
| 42>    C     -5.743627   -1.326064    0.751110
| 43>    C      4.103498    2.908556   -1.565807
| 44>    C      4.313256    3.610616    0.804676
| 45>    H     -1.236385    0.714784   -0.969233
| 46>    H      1.761872   -0.153823    1.291732
| 47>    H      3.165748    0.409304   -1.330665
| 48>    H     -3.266057   -0.298226   -1.431794
| 49>    H      1.043881   -2.894124   -1.296908
| 50>    H      1.506668   -2.739863    0.376802
| 51>    H     -1.102119   -3.012752   -0.331879
| 52>    H     -1.434445   -1.868711   -1.618303
| 53>    H     -0.352152    1.310243    1.884237
| 54>    H     -0.836896    2.500544    0.702409
| 55>    H      1.058785    2.004151   -0.732080
| 56>    H      1.640985    2.243555    0.899513
| 57>    H      3.482097   -3.209216   -0.935258
| 58>    H      3.166091   -1.904732   -2.052061
| 59>    H     -3.510954   -2.675628   -0.698478
| 60>    H     -3.084960   -2.201842    0.926164
| 61>    H      4.123591    1.163835    1.448175
| 62>    H     -2.514767    2.451244   -0.659557
| 63>    H     -3.421956    2.626448    0.821520
| 64>    H      5.277130   -0.815132   -1.731550
| 65>    H      6.012325   -1.653127   -0.363524
| 66>    H     -1.362226   -1.758333    2.062082
| 67>    H      0.252018   -2.313946    1.703117
| 68>    H     -0.002990   -0.683113    2.309062
| 69>    H      1.686803   -0.441787   -2.535843
| 70>    H      0.061789   -1.086406   -2.584509
| 71>    H      0.333311    0.599296   -2.155797
| 72>    H      6.218296    0.390348    0.889624
| 73>    H      6.180662    1.118094   -0.703461
| 74>    H     -4.100426    0.744951    2.172311
| 75>    H     -2.909874   -0.542509    2.358540
| 76>    H     -2.420762    1.142405    2.515324
| 77>    H     -6.529104    1.042374   -0.964226
| 78>    H     -5.008346    2.968844   -0.912706
| 79>    H     -4.370087    1.680545   -1.911699
| 80>    H      2.956569   -1.809257    1.770427
| 81>    H      4.504652   -0.989712    1.936132
| 82>    H     -6.694542   -1.134877   -1.737172
| 83>    H     -5.286571   -0.449387   -2.565864
| 84>    H     -5.206043   -2.078646   -1.883440
| 85>    H     -6.833691   -1.224001    0.729867
| 86>    H     -5.510814   -2.385371    0.610155
| 87>    H     -5.401803   -1.032952    1.743923
| 88>    H     -6.325244    2.280134    0.970951
| 89>    H      4.102636   -3.657474    1.131755
| 90>    H      3.125869    2.617589   -1.965217
| 91>    H      4.247552    3.973669   -1.764658
| 92>    H      4.853661    2.348239   -2.136014
| 93>    H      4.345558    4.651857    0.495442
| 94>    H      4.373592    3.411591    1.871352
| 95> *
| 96> 
| 97> 
| 98> 
| 99>                          ****END OF INPUT****
================================================================================

                       ****************************
                       * Single Point Calculation *
                       ****************************

---------------------------------
CARTESIAN COORDINATES (ANGSTROEM)
---------------------------------
  O     -6.032783    1.360645    1.004233
  O      4.661592   -2.943573    1.460882
  C     -0.576024   -0.964159    0.174862
  C      0.859084   -0.858386   -0.549157
  C     -1.252476    0.454441    0.094043
  C      1.730983    0.183721    0.251270
  C     -2.789675    0.564069    0.442539
  C      3.186233    0.191878   -0.256427
  C      3.861937   -1.206980   -0.142684
  C     -3.535565   -0.527406   -0.390613
  C      1.574628   -2.243927   -0.593368
  C     -1.480298   -2.004089   -0.533744
  C     -0.384380    1.509518    0.808427
  C      1.055964    1.564934    0.272332
  C      3.063127   -2.197013   -1.001078
  C     -2.957259   -1.925134   -0.124684
  C      4.231665    1.165876    0.358500
  C     -5.110630   -0.483453   -0.374642
  C     -3.284933    1.974007   -0.045835
  C      5.283900   -0.885392   -0.637953
  C     -0.406649   -1.445148    1.642361
  C      0.719373   -0.411858   -2.031591
  C      5.608424    0.494466   -0.012137
  C     -3.070239    0.459354    1.959817
  C     -5.632214    0.988875   -0.332906
  C     -4.584412    1.957418   -0.873005
  C      3.948094   -1.701616    1.324002
  C      4.197501    2.615879   -0.087514
  C     -5.601022   -1.071550   -1.720825
  C     -5.743627   -1.326064    0.751110
  C      4.103498    2.908556   -1.565807
  C      4.313256    3.610616    0.804676
  H     -1.236385    0.714784   -0.969233
  H      1.761872   -0.153823    1.291732
  H      3.165748    0.409304   -1.330665
  H     -3.266057   -0.298226   -1.431794
  H      1.043881   -2.894124   -1.296908
  H      1.506668   -2.739863    0.376802
  H     -1.102119   -3.012752   -0.331879
  H     -1.434445   -1.868711   -1.618303
  H     -0.352152    1.310243    1.884237
  H     -0.836896    2.500544    0.702409
  H      1.058785    2.004151   -0.732080
  H      1.640985    2.243555    0.899513
  H      3.482097   -3.209216   -0.935258
  H      3.166091   -1.904732   -2.052061
  H     -3.510954   -2.675628   -0.698478
  H     -3.084960   -2.201842    0.926164
  H      4.123591    1.163835    1.448175
  H     -2.514767    2.451244   -0.659557
  H     -3.421956    2.626448    0.821520
  H      5.277130   -0.815132   -1.731550
  H      6.012325   -1.653127   -0.363524
  H     -1.362226   -1.758333    2.062082
  H      0.252018   -2.313946    1.703117
  H     -0.002990   -0.683113    2.309062
  H      1.686803   -0.441787   -2.535843
  H      0.061789   -1.086406   -2.584509
  H      0.333311    0.599296   -2.155797
  H      6.218296    0.390348    0.889624
  H      6.180662    1.118094   -0.703461
  H     -4.100426    0.744951    2.172311
  H     -2.909874   -0.542509    2.358540
  H     -2.420762    1.142405    2.515324
  H     -6.529104    1.042374   -0.964226
  H     -5.008346    2.968844   -0.912706
  H     -4.370087    1.680545   -1.911699
  H      2.956569   -1.809257    1.770427
  H      4.504652   -0.989712    1.936132
  H     -6.694542   -1.134877   -1.737172
  H     -5.286571   -0.449387   -2.565864
  H     -5.206043   -2.078646   -1.883440
  H     -6.833691   -1.224001    0.729867
  H     -5.510814   -2.385371    0.610155
  H     -5.401803   -1.032952    1.743923
  H     -6.325244    2.280134    0.970951
  H      4.102636   -3.657474    1.131755
  H      3.125869    2.617589   -1.965217
  H      4.247552    3.973669   -1.764658
  H      4.853661    2.348239   -2.136014
  H      4.345558    4.651857    0.495442
  H      4.373592    3.411591    1.871352

----------------------------
CARTESIAN COORDINATES (A.U.)
----------------------------
  NO LB      ZA    FRAG     MASS         X           Y           Z
   0 O     8.0000    0    15.999  -11.400308    2.571246    1.897725
   1 O     8.0000    0    15.999    8.809132   -5.562547    2.760667
   2 C     6.0000    0    12.011   -1.088528   -1.821996    0.330441
   3 C     6.0000    0    12.011    1.623433   -1.622114   -1.037756
   4 C     6.0000    0    12.011   -2.366837    0.858769    0.177716
   5 C     6.0000    0    12.011    3.271084    0.347182    0.474831
   6 C     6.0000    0    12.011   -5.271722    1.065936    0.836278
   7 C     6.0000    0    12.011    6.021108    0.362597   -0.484577
   8 C     6.0000    0    12.011    7.298003   -2.280862   -0.269634
   9 C     6.0000    0    12.011   -6.681250   -0.996653   -0.738152
  10 C     6.0000    0    12.011    2.975616   -4.240407   -1.121303
  11 C     6.0000    0    12.011   -2.797358   -3.787179   -1.008630
  12 C     6.0000    0    12.011   -0.726373    2.852576    1.527706
  13 C     6.0000    0    12.011    1.995483    2.957297    0.514633
  14 C     6.0000    0    12.011    5.788471   -4.151753   -1.891763
  15 C     6.0000    0    12.011   -5.588410   -3.637976   -0.235619
  16 C     6.0000    0    12.011    7.996688    2.203186    0.677467
  17 C     6.0000    0    12.011   -9.657691   -0.913594   -0.707971
  18 C     6.0000    0    12.011   -6.207624    3.730333   -0.086616
  19 C     6.0000    0    12.011    9.985124   -1.673148   -1.205556
  20 C     6.0000    0    12.011   -0.768455   -2.730934    3.103613
  21 C     6.0000    0    12.011    1.359418   -0.778299   -3.839151
  22 C     6.0000    0    12.011   10.598385    0.934405   -0.022936
  23 C     6.0000    0    12.011   -5.801911    0.868053    3.703517
  24 C     6.0000    0    12.011  -10.643342    1.868703   -0.629101
  25 C     6.0000    0    12.011   -8.663283    3.698984   -1.649740
  26 C     6.0000    0    12.011    7.460816   -3.215588    2.502001
  27 C     6.0000    0    12.011    7.932127    4.943295   -0.165377
  28 C     6.0000    0    12.011  -10.584398   -2.024936   -3.251888
  29 C     6.0000    0    12.011  -10.853882   -2.505898    1.419392
  30 C     6.0000    0    12.011    7.754487    5.496374   -2.958946
  31 C     6.0000    0    12.011    8.150873    6.823075    1.520617
  32 H     1.0000    0     1.008   -2.336429    1.350746   -1.831585
  33 H     1.0000    0     1.008    3.329456   -0.290683    2.441020
  34 H     1.0000    0     1.008    5.982397    0.773472   -2.514592
  35 H     1.0000    0     1.008   -6.171953   -0.563565   -2.705699
  36 H     1.0000    0     1.008    1.972649   -5.469102   -2.450801
  37 H     1.0000    0     1.008    2.847190   -5.177591    0.712053
  38 H     1.0000    0     1.008   -2.082703   -5.693276   -0.627160
  39 H     1.0000    0     1.008   -2.710708   -3.531352   -3.058149
  40 H     1.0000    0     1.008   -0.665471    2.476000    3.560692
  41 H     1.0000    0     1.008   -1.581504    4.725343    1.327361
  42 H     1.0000    0     1.008    2.000814    3.787297   -1.383431
  43 H     1.0000    0     1.008    3.101012    4.239705    1.699833
  44 H     1.0000    0     1.008    6.580210   -6.064539   -1.767381
  45 H     1.0000    0     1.008    5.983045   -3.599422   -3.877833
  46 H     1.0000    0     1.008   -6.634742   -5.056204   -1.319932
  47 H     1.0000    0     1.008   -5.829730   -4.160878    1.750196
  48 H     1.0000    0     1.008    7.792458    2.199329    2.736654
  49 H     1.0000    0     1.008   -4.752221    4.632180   -1.246382
  50 H     1.0000    0     1.008   -6.466560    4.963267    1.552448
  51 H     1.0000    0     1.008    9.972330   -1.540376   -3.272155
  52 H     1.0000    0     1.008   11.361648   -3.123957   -0.686961
  53 H     1.0000    0     1.008   -2.574234   -3.322768    3.896770
  54 H     1.0000    0     1.008    0.476245   -4.372724    3.218425
  55 H     1.0000    0     1.008   -0.005650   -1.290896    4.363495
  56 H     1.0000    0     1.008    3.187596   -0.834856   -4.792049
  57 H     1.0000    0     1.008    0.116764   -2.053010   -4.884014
  58 H     1.0000    0     1.008    0.629867    1.132505   -4.073866
  59 H     1.0000    0     1.008   11.750876    0.737651    1.681146
  60 H     1.0000    0     1.008   11.679759    2.112891   -1.329349
  61 H     1.0000    0     1.008   -7.748682    1.407753    4.105073
  62 H     1.0000    0     1.008   -5.498865   -1.025193    4.456995
  63 H     1.0000    0     1.008   -4.574577    2.158833    4.753273
  64 H     1.0000    0     1.008  -12.338218    1.969801   -1.822123
  65 H     1.0000    0     1.008   -9.464402    5.610302   -1.724764
  66 H     1.0000    0     1.008   -8.258268    3.175770   -3.612588
  67 H     1.0000    0     1.008    5.587106   -3.419000    3.345622
  68 H     1.0000    0     1.008    8.512559   -1.870285    3.658759
  69 H     1.0000    0     1.008  -12.650851   -2.144607   -3.282779
  70 H     1.0000    0     1.008   -9.990171   -0.849218   -4.848780
  71 H     1.0000    0     1.008   -9.837996   -3.928072   -3.559186
  72 H     1.0000    0     1.008  -12.913804   -2.313027    1.379249
  73 H     1.0000    0     1.008  -10.413929   -4.507698    1.153026
  74 H     1.0000    0     1.008  -10.207928   -1.951996    3.295537
  75 H     1.0000    0     1.008  -11.952979    4.308829    1.834831
  76 H     1.0000    0     1.008    7.752858   -6.911624    2.138707
  77 H     1.0000    0     1.008    5.907036    4.946526   -3.713722
  78 H     1.0000    0     1.008    8.026710    7.509146   -3.334720
  79 H     1.0000    0     1.008    9.172090    4.437529   -4.036481
  80 H     1.0000    0     1.008    8.211915    8.790736    0.936250
  81 H     1.0000    0     1.008    8.264891    6.446973    3.536343

--------------------------------
INTERNAL COORDINATES (ANGSTROEM)
--------------------------------
 O      0   0   0     0.000000000000     0.00000000     0.00000000
 O      1   0   0    11.537091381338     0.00000000     0.00000000
 C      2   1   0     5.744958536600    10.73517471     0.00000000
 C      3   2   1     1.610877528415    46.45092321   142.15312623
 C      3   2   4     1.573704222230   135.55903707   292.13811812
 C      4   3   2     1.576983908599   107.92809011   284.95156640
 C      5   3   2     1.580015356255   117.99646000   211.63610661
 C      6   4   3     1.541290155343   110.99776860   171.83035423
 C      8   6   4     1.557663978472   112.38147767   301.65073479
 C      7   5   3     1.562629777916   107.35743563   309.59333269
 C      4   3   2     1.560026182837   111.28740549    46.16729156
 C      3   2   9     1.549609091097   113.77560560   112.54538204
 C      5   3   2     1.541792022486   110.55180093   344.54475946
 C      6   4   3     1.537479628995   110.96937374   300.31704253
 C      9   8   6     1.534634489520   108.22272847    60.70897252
 C     12   3   2     1.534593682753   113.90454506   143.45507833
 C      8   6   4     1.555549866111   120.50728772   178.53847107
 C     10   7   5     1.575759084783   116.88702452   188.59328264
 C      7   5   3     1.572168824994   107.46889839   193.53282653
 C      9   8   6     1.539704191549   100.92728005   182.75244458
 C      3   2   9     1.553573823076    65.32207059   210.80570964
 C      4   3   2     1.554515031340   111.55589957   163.85746970
 C     20   9   8     1.549506241548   104.44810549    40.15814439
 C      7   5   3     1.546549035306   112.84188211    74.63137430
 C      1   2   9     1.444510007574    71.55296509    48.50039209
 C     25   1   2     1.525670837322   110.77852797   287.96169391
 C      2   1  25     1.438844230712    38.23743663    92.25103140
 C     17   8   6     1.517433480289   117.83948147   281.85045856
 C     18  10   7     1.548725625978   107.28356514   151.08538902
 C     18  10   7     1.542075246165   113.73211305   269.55344662
 C     28  17   8     1.509916085147   118.31999185   312.81515266
 C     28  17   8     1.341232237643   120.74634313   135.99230348
 H      5   3   2     1.094802836179   104.94672611    98.65418988
 H      6   4   3     1.094281159347   107.11994965    55.64916886
 H      8   6   4     1.096212106002   107.83039036    56.82080526
 H     10   7   5     1.099643537345   104.02032516   303.05516789
 H     11   4   3     1.095179002911   108.85713285    70.15511939
 H     11   4   3     1.091696343585   110.47089955   314.48487963
 H     12   3   2     1.095978960489   109.39272280    20.83197188
 H     12   3   2     1.093936892592   110.23374833   264.18972359
 H     13   5   3     1.094585001591   110.32793343   293.43452146
 H     13   5   3     1.094597222386   109.99409442   177.09517744
 H     14   6   4     1.096249513968   110.25819528   291.62071640
 H     14   6   4     1.093678215401   109.29519676   175.49833738
 H     15   9   8     1.097462093427   111.26891465   181.54090848
 H     15   9   8     1.095716676220   108.39171845    65.93805016
 H     16  12   3     1.095015502857   108.16288034   178.38439581
 H     16  12   3     1.094146416970   110.81359008   293.83582680
 H     17   8   6     1.095023178194   109.01913446    43.94996780
 H     19   7   5     1.094333365574   110.09684548    10.32679400
 H     19   7   5     1.093964924956   109.14894729   254.57665739
 H     20   9   8     1.095872574212   109.18884079   282.16635541
 H     20   9   8     1.093312072050   112.82392563   162.78212864
 H     21   3   2     1.089668740946   110.92945376   205.91184608
 H     21   3   2     1.091944812355   111.38622459   323.97338358
 H     21   3   2     1.090012914101   113.68365895    85.45416664
 H     22   4   3     1.091369153607   110.67501549   185.70053121
 H     22   4   3     1.092314073920   111.06565550   303.68970893
 H     22   4   3     1.089450967229   114.02728718    65.43758699
 H     23  20   9     1.093598333681   111.41050052    98.85793553
 H     23  20   9     1.092839001868   111.24430195   217.52147142
 H     24   7   5     1.089956238302   110.18118563   168.22909400
 H     24   7   5     1.090149730415   113.22650641   289.25634066
 H     24   7   5     1.094059902007   110.37554561    49.81932491
 H     25   1   2     1.098106897119   107.04681281   169.17272030
 H     26  25   1     1.097396354665   109.42638553   299.10115312
 H     26  25   1     1.096120015961   108.02268103   184.24497668
 H     27   2   1     1.092704759361   109.03046289    24.57666346
 H     27   2   1     1.091451899756   104.87938442   139.26121830
 H     29  18  10     1.095474109113   110.54846489   175.83252943
 H     29  18  10     1.095471196103   111.34329822   295.79650934
 H     29  18  10     1.093935282310   111.37489756    56.06549997
 H     30  18  10     1.095037736845   110.09202299   177.93201765
 H     30  18  10     1.093709982236   110.35063196   296.35723115
 H     30  18  10     1.090154092085   112.90562852    57.47970689
 H      1   2  27     0.965453856570   129.60401287   354.74376669
 H      2   1  76     0.964578161616    74.06541370   200.79734334
 H     31  28  17     1.095421656181   111.16509911    68.72746136
 H     31  28  17     1.093050308946   111.02592238   189.06517323
 H     31  28  17     1.096282668798   111.56534029   309.91302773
 H     32  28  17     1.086670099911   121.59571661   176.58243458
 H     32  28  17     1.086760816600   121.45810848   356.24290010

---------------------------
INTERNAL COORDINATES (A.U.)
---------------------------
 O      0   0   0     0.000000000000     0.00000000     0.00000000
 O      1   0   0    21.801943092753     0.00000000     0.00000000
 C      2   1   0    10.856398284907    10.73517471     0.00000000
 C      3   2   1     3.044117363993    46.45092321   142.15312623
 C      3   2   4     2.973869995811   135.55903707   292.13811812
 C      4   3   2     2.980067704852   107.92809011   284.95156640
 C      5   3   2     2.985796310712   117.99646000   211.63610661
 C      6   4   3     2.912616286508   110.99776860   171.83035423
 C      8   6   4     2.943558327986   112.38147767   301.65073479
 C      7   5   3     2.952942328971   107.35743563   309.59333269
 C      4   3   2     2.948022247309   111.28740549    46.16729156
 C      3   2   9     2.928336796809   113.77560560   112.54538204
 C      5   3   2     2.913564677963   110.55180093   344.54475946
 C      6   4   3     2.905415435283   110.96937374   300.31704253
 C      9   8   6     2.900038900863   108.22272847    60.70897252
 C     12   3   2     2.899961787249   113.90454506   143.45507833
 C      8   6   4     2.939563234607   120.50728772   178.53847107
 C     10   7   5     2.977753123278   116.88702452   188.59328264
 C      7   5   3     2.970968515528   107.46889839   193.53282653
 C      9   8   6     2.909619249279   100.92728005   182.75244458
 C      3   2   9     2.935829054443    65.32207059   210.80570964
 C      4   3   2     2.937607680296   111.55589957   163.85746970
 C     20   9   8     2.928142439327   104.44810549    40.15814439
 C      7   5   3     2.922554129408   112.84188211    74.63137430
 C      1   2   9     2.729728312024    71.55296509    48.50039209
 C     25   1   2     2.883100053048   110.77852797   287.96169391
 C      2   1  25     2.719021545418    38.23743663    92.25103140
 C     17   8   6     2.867533704189   117.83948147   281.85045856
 C     18  10   7     2.926667289685   107.28356514   151.08538902
 C     18  10   7     2.914099893151   113.73211305   269.55344662
 C     28  17   8     2.853327886131   118.31999185   312.81515266
 C     28  17   8     2.534561611132   120.74634313   135.99230348
 H      5   3   2     2.068877531019   104.94672611    98.65418988
 H      6   4   3     2.067891704675   107.11994965    55.64916886
 H      8   6   4     2.071540665033   107.83039036    56.82080526
 H     10   7   5     2.078025130519   104.02032516   303.05516789
 H     11   4   3     2.069588383123   108.85713285    70.15511939
 H     11   4   3     2.063007110778   110.47089955   314.48487963
 H     12   3   2     2.071100083864   109.39272280    20.83197188
 H     12   3   2     2.067241134792   110.23374833   264.18972359
 H     13   5   3     2.068465883306   110.32793343   293.43452146
 H     13   5   3     2.068488977261   109.99409442   177.09517744
 H     14   6   4     2.071611355843   110.25819528   291.62071640
 H     14   6   4     2.066752305744   109.29519676   175.49833738
 H     15   9   8     2.073902798937   111.26891465   181.54090848
 H     15   9   8     2.070604438426   108.39171845    65.93805016
 H     16  12   3     2.069279412798   108.16288034   178.38439581
 H     16  12   3     2.067637078485   110.81359008   293.83582680
 H     17   8   6     2.069293917083   109.01913446    43.94996780
 H     19   7   5     2.067990360148   110.09684548    10.32679400
 H     19   7   5     2.067294108283   109.14894729   254.57665739
 H     20   9   8     2.070899042935   109.18884079   282.16635541
 H     20   9   8     2.066060395085   112.82392563   162.78212864
 H     21   3   2     2.059175497083   110.92945376   205.91184608
 H     21   3   2     2.063476648707   111.38622459   323.97338358
 H     21   3   2     2.059825890088   113.68365895    85.45416664
 H     22   4   3     2.062388811327   110.67501549   185.70053121
 H     22   4   3     2.064174451937   111.06565550   303.68970893
 H     22   4   3     2.058763964398   114.02728718    65.43758699
 H     23  20   9     2.066601351169   111.41050052    98.85793553
 H     23  20   9     2.065166421999   111.24430195   217.52147142
 H     24   7   5     2.059718788350   110.18118563   168.22909400
 H     24   7   5     2.060084435452   113.22650641   289.25634066
 H     24   7   5     2.067473588897   110.37554561    49.81932491
 H     25   1   2     2.075121301326   107.04681281   169.17272030
 H     26  25   1     2.073778570681   109.42638553   299.10115312
 H     26  25   1     2.071366640075   108.02268103   184.24497668
 H     27   2   1     2.064912740425   109.03046289    24.57666346
 H     27   2   1     2.062545178886   104.87938442   139.26121830
 H     29  18  10     2.070146053026   110.54846489   175.83252943
 H     29  18  10     2.070140548234   111.34329822   295.79650934
 H     29  18  10     2.067238091799   111.37489756    56.06549997
 H     30  18  10     2.069321428945   110.09202299   177.93201765
 H     30  18  10     2.066812336362   110.35063196   296.35723115
 H     30  18  10     2.060092677814   112.90562852    57.47970689
 H      1   2  27     1.824443383855   129.60401287   354.74376669
 H      2   1  76     1.822788560215    74.06541370   200.79734334
 H     31  28  17     2.070046931348   111.16509911    68.72746136
 H     31  28  17     2.065565734505   111.02592238   189.06517323
 H     31  28  17     2.071674009393   111.56534029   309.91302773
 H     32  28  17     2.053508886753   121.59571661   176.58243458
 H     32  28  17     2.053680316451   121.45810848   356.24290010

---------------------
BASIS SET INFORMATION
---------------------
There are 3 groups of distinct atoms

 Group   1 Type O   : 11s5p2d contracted to 4s3p2d pattern {6311/311/11}
 Group   2 Type C   : 11s5p2d contracted to 4s3p2d pattern {6311/311/11}
 Group   3 Type H   : 5s2p contracted to 3s2p pattern {311/11}

Atom   0O    basis set group =>   1
Atom   1O    basis set group =>   1
Atom   2C    basis set group =>   2
Atom   3C    basis set group =>   2
Atom   4C    basis set group =>   2
Atom   5C    basis set group =>   2
Atom   6C    basis set group =>   2
Atom   7C    basis set group =>   2
Atom   8C    basis set group =>   2
Atom   9C    basis set group =>   2
Atom  10C    basis set group =>   2
Atom  11C    basis set group =>   2
Atom  12C    basis set group =>   2
Atom  13C    basis set group =>   2
Atom  14C    basis set group =>   2
Atom  15C    basis set group =>   2
Atom  16C    basis set group =>   2
Atom  17C    basis set group =>   2
Atom  18C    basis set group =>   2
Atom  19C    basis set group =>   2
Atom  20C    basis set group =>   2
Atom  21C    basis set group =>   2
Atom  22C    basis set group =>   2
Atom  23C    basis set group =>   2
Atom  24C    basis set group =>   2
Atom  25C    basis set group =>   2
Atom  26C    basis set group =>   2
Atom  27C    basis set group =>   2
Atom  28C    basis set group =>   2
Atom  29C    basis set group =>   2
Atom  30C    basis set group =>   2
Atom  31C    basis set group =>   2
Atom  32H    basis set group =>   3
Atom  33H    basis set group =>   3
Atom  34H    basis set group =>   3
Atom  35H    basis set group =>   3
Atom  36H    basis set group =>   3
Atom  37H    basis set group =>   3
Atom  38H    basis set group =>   3
Atom  39H    basis set group =>   3
Atom  40H    basis set group =>   3
Atom  41H    basis set group =>   3
Atom  42H    basis set group =>   3
Atom  43H    basis set group =>   3
Atom  44H    basis set group =>   3
Atom  45H    basis set group =>   3
Atom  46H    basis set group =>   3
Atom  47H    basis set group =>   3
Atom  48H    basis set group =>   3
Atom  49H    basis set group =>   3
Atom  50H    basis set group =>   3
Atom  51H    basis set group =>   3
Atom  52H    basis set group =>   3
Atom  53H    basis set group =>   3
Atom  54H    basis set group =>   3
Atom  55H    basis set group =>   3
Atom  56H    basis set group =>   3
Atom  57H    basis set group =>   3
Atom  58H    basis set group =>   3
Atom  59H    basis set group =>   3
Atom  60H    basis set group =>   3
Atom  61H    basis set group =>   3
Atom  62H    basis set group =>   3
Atom  63H    basis set group =>   3
Atom  64H    basis set group =>   3
Atom  65H    basis set group =>   3
Atom  66H    basis set group =>   3
Atom  67H    basis set group =>   3
Atom  68H    basis set group =>   3
Atom  69H    basis set group =>   3
Atom  70H    basis set group =>   3
Atom  71H    basis set group =>   3
Atom  72H    basis set group =>   3
Atom  73H    basis set group =>   3
Atom  74H    basis set group =>   3
Atom  75H    basis set group =>   3
Atom  76H    basis set group =>   3
Atom  77H    basis set group =>   3
Atom  78H    basis set group =>   3
Atom  79H    basis set group =>   3
Atom  80H    basis set group =>   3
Atom  81H    basis set group =>   3
---------------------------------
AUXILIARY/J BASIS SET INFORMATION
---------------------------------
There are 3 groups of distinct atoms

 Group   1 Type O   : 12s5p4d2f1g contracted to 6s4p3d1f1g pattern {711111/2111/211/2/1}
 Group   2 Type C   : 12s5p4d2f1g contracted to 6s4p3d1f1g pattern {711111/2111/211/2/1}
 Group   3 Type H   : 5s2p1d contracted to 3s1p1d pattern {311/2/1}

Atom   0O    basis set group =>   1
Atom   1O    basis set group =>   1
Atom   2C    basis set group =>   2
Atom   3C    basis set group =>   2
Atom   4C    basis set group =>   2
Atom   5C    basis set group =>   2
Atom   6C    basis set group =>   2
Atom   7C    basis set group =>   2
Atom   8C    basis set group =>   2
Atom   9C    basis set group =>   2
Atom  10C    basis set group =>   2
Atom  11C    basis set group =>   2
Atom  12C    basis set group =>   2
Atom  13C    basis set group =>   2
Atom  14C    basis set group =>   2
Atom  15C    basis set group =>   2
Atom  16C    basis set group =>   2
Atom  17C    basis set group =>   2
Atom  18C    basis set group =>   2
Atom  19C    basis set group =>   2
Atom  20C    basis set group =>   2
Atom  21C    basis set group =>   2
Atom  22C    basis set group =>   2
Atom  23C    basis set group =>   2
Atom  24C    basis set group =>   2
Atom  25C    basis set group =>   2
Atom  26C    basis set group =>   2
Atom  27C    basis set group =>   2
Atom  28C    basis set group =>   2
Atom  29C    basis set group =>   2
Atom  30C    basis set group =>   2
Atom  31C    basis set group =>   2
Atom  32H    basis set group =>   3
Atom  33H    basis set group =>   3
Atom  34H    basis set group =>   3
Atom  35H    basis set group =>   3
Atom  36H    basis set group =>   3
Atom  37H    basis set group =>   3
Atom  38H    basis set group =>   3
Atom  39H    basis set group =>   3
Atom  40H    basis set group =>   3
Atom  41H    basis set group =>   3
Atom  42H    basis set group =>   3
Atom  43H    basis set group =>   3
Atom  44H    basis set group =>   3
Atom  45H    basis set group =>   3
Atom  46H    basis set group =>   3
Atom  47H    basis set group =>   3
Atom  48H    basis set group =>   3
Atom  49H    basis set group =>   3
Atom  50H    basis set group =>   3
Atom  51H    basis set group =>   3
Atom  52H    basis set group =>   3
Atom  53H    basis set group =>   3
Atom  54H    basis set group =>   3
Atom  55H    basis set group =>   3
Atom  56H    basis set group =>   3
Atom  57H    basis set group =>   3
Atom  58H    basis set group =>   3
Atom  59H    basis set group =>   3
Atom  60H    basis set group =>   3
Atom  61H    basis set group =>   3
Atom  62H    basis set group =>   3
Atom  63H    basis set group =>   3
Atom  64H    basis set group =>   3
Atom  65H    basis set group =>   3
Atom  66H    basis set group =>   3
Atom  67H    basis set group =>   3
Atom  68H    basis set group =>   3
Atom  69H    basis set group =>   3
Atom  70H    basis set group =>   3
Atom  71H    basis set group =>   3
Atom  72H    basis set group =>   3
Atom  73H    basis set group =>   3
Atom  74H    basis set group =>   3
Atom  75H    basis set group =>   3
Atom  76H    basis set group =>   3
Atom  77H    basis set group =>   3
Atom  78H    basis set group =>   3
Atom  79H    basis set group =>   3
Atom  80H    basis set group =>   3
Atom  81H    basis set group =>   3


           ************************************************************
           *        Program running with 16 parallel MPI-processes    *
           *              working on a common directory               *
           ************************************************************
------------------------------------------------------------------------------
                           ORCA GTO INTEGRAL CALCULATION
                           -- RI-GTO INTEGRALS CHOSEN --
------------------------------------------------------------------------------
------------------------------------------------------------------------------
                   ___                                                        
                  /   \      - P O W E R E D   B Y -                         
                 /     \                                                     
                 |  |  |   _    _      __       _____    __    __             
                 |  |  |  | |  | |    /  \     |  _  \  |  |  /  |          
                  \  \/   | |  | |   /    \    | | | |  |  | /  /          
                 / \  \   | |__| |  /  /\  \   | |_| |  |  |/  /          
                |  |  |   |  __  | /  /__\  \  |    /   |      \           
                |  |  |   | |  | | |   __   |  |    \   |  |\   \          
                \     /   | |  | | |  |  |  |  | |\  \  |  | \   \       
                 \___/    |_|  |_| |__|  |__|  |_| \__\ |__|  \__/        
                                                                              
                      - O R C A' S   B I G   F R I E N D -                    
                                      &                                       
                       - I N T E G R A L  F E E D E R -                       
                                                                              
 v1 FN, 2020, v2 2021                                                         
------------------------------------------------------------------------------


Reading SHARK input file betulin_optimized.SHARKINP.tmp ... ok
----------------------
SHARK INTEGRAL PACKAGE
----------------------

Number of atoms                             ...     82
Number of basis functions                   ...   1186
Number of shells                            ...    538
Maximum angular momentum                    ...      2
Integral batch strategy                     ... SHARK/LIBINT Hybrid
RI-J (if used) integral strategy            ... SPLIT-RIJ (Revised 2003 algorithm where possible)
Printlevel                                  ...      1
Contraction scheme used                     ... SEGMENTED contraction
Coulomb Range Separation                    ... NOT USED
Exchange Range Separation                   ... NOT USED
Finite Nucleus Model                        ... NOT USED
Auxiliary Coulomb fitting basis             ... AVAILABLE
   # of basis functions in Aux-J            ...   2118
   # of shells in Aux-J                     ...    730
   Maximum angular momentum in Aux-J        ...      4
Auxiliary J/K fitting basis                 ... NOT available
Auxiliary Correlation fitting basis         ... NOT available
Auxiliary 'external' fitting basis          ... NOT available
Integral threshold                          ...     1.000000e-10
Primitive cut-off                           ...     1.000000e-11
Primitive pair pre-selection threshold      ...     1.000000e-11

Calculating pre-screening integrals         ... done (  0.0 sec) Dimension = 538
Organizing shell pair data                  ... done (  0.7 sec)
Shell pair information
Total number of shell pairs                 ...    144991
Shell pairs after pre-screening             ...    108062
Total number of primitive shell pairs       ...    430023
Primitive shell pairs kept                  ...    217079
          la=0 lb=0:  31285 shell pairs
          la=1 lb=0:  41215 shell pairs
          la=1 lb=1:  13400 shell pairs
          la=2 lb=0:  12807 shell pairs
          la=2 lb=1:   8127 shell pairs
          la=2 lb=2:   1228 shell pairs

Calculating one electron integrals          ... done (  0.1 sec)
Calculating RI/J V-Matrix + Cholesky decomp.... done (  0.2 sec)
Calculating Nuclear repulsion               ... done (  0.0 sec) ENN=   3751.005151360116 Eh

SHARK setup successfully completed in   1.6 seconds

Maximum memory used throughout the entire GTOINT-calculation: 145.8 MB


           ************************************************************
           *        Program running with 16 parallel MPI-processes    *
           *              working on a common directory               *
           ************************************************************
-------------------------------------------------------------------------------
                                 ORCA SCF
-------------------------------------------------------------------------------

------------
SCF SETTINGS
------------
Hamiltonian:
 Density Functional     Method          .... DFT(GTOs)
 Exchange Functional    Exchange        .... B88
   X-Alpha parameter    XAlpha          ....  0.666667
   Becke's b parameter  XBeta           ....  0.004200
 Correlation Functional Correlation     .... LYP
 LDA part of GGA corr.  LDAOpt          .... VWN-5
 Gradients option       PostSCFGGA      .... off
 Hybrid DFT is turned on
   Fraction HF Exchange ScalHFX         ....  0.200000
   Scaling of DF-GGA-X  ScalDFX         ....  0.720000
   Scaling of DF-GGA-C  ScalDFC         ....  0.810000
   Scaling of DF-LDA-C  ScalLDAC        ....  1.000000
   Perturbative correction              ....  0.000000
   Density functional embedding theory  .... OFF
   NL short-range parameter             ....  4.800000
 RI-approximation to the Coulomb term is turned on
   Number of AuxJ basis functions       .... 2118
   RIJ-COSX (HFX calculated with COS-X)).... on


General Settings:
 Integral files         IntName         .... betulin_optimized
 Hartree-Fock type      HFTyp           .... RHF
 Total Charge           Charge          ....    0
 Multiplicity           Mult            ....    1
 Number of Electrons    NEL             ....  246
 Basis Dimension        Dim             .... 1186
 Nuclear Repulsion      ENuc            ....   3751.0051513601 Eh

Convergence Acceleration:
 DIIS                   CNVDIIS         .... on
   Start iteration      DIISMaxIt       ....    12
   Startup error        DIISStart       ....  0.200000
   # of expansion vecs  DIISMaxEq       ....     5
   Bias factor          DIISBfac        ....   1.050
   Max. coefficient     DIISMaxC        ....  10.000
 Trust-Rad. Augm. Hess. CNVTRAH         .... auto
   Auto Start mean grad. ratio tolernc. ....  1.125000
   Auto Start start iteration           ....    20
   Auto Start num. interpolation iter.  ....    10
   Max. Number of Micro iterations      ....    16
   Max. Number of Macro iterations      .... Maxiter - #DIIS iter
   Number of Davidson start vectors     ....     2
   Converg. threshold I  (grad. norm)   ....   5.000e-05
   Converg. threshold II (energy diff.) ....   1.000e-06
   Grad. Scal. Fac. for Micro threshold ....   0.100
   Minimum threshold for Micro iter.    ....   0.010
   NR start threshold (gradient norm)   ....   0.001
   Initial trust radius                 ....   0.400
   Minimum AH scaling param. (alpha)    ....   1.000
   Maximum AH scaling param. (alpha)    .... 1000.000
   Orbital update algorithm             .... Taylor
   White noise on init. David. guess    .... on
   Maximum white noise                  ....   0.010
   Quad. conv. algorithm                .... NR
 SOSCF                  CNVSOSCF        .... on
   Start iteration      SOSCFMaxIt      ....   150
   Startup grad/error   SOSCFStart      ....  0.003300
 Level Shifting         CNVShift        .... on
   Level shift para.    LevelShift      ....    0.2500
   Turn off err/grad.   ShiftErr        ....    0.0010
 Zerner damping         CNVZerner       .... off
 Static damping         CNVDamp         .... on
   Fraction old density DampFac         ....    0.7000
   Max. Damping (<1)    DampMax         ....    0.9800
   Min. Damping (>=0)   DampMin         ....    0.0000
   Turn off err/grad.   DampErr         ....    0.1000
 Fernandez-Rico         CNVRico         .... off

SCF Procedure:
 Maximum # iterations   MaxIter         ....   125
 SCF integral mode      SCFMode         .... Direct
   Integral package                     .... SHARK and LIBINT hybrid scheme
 Reset frequency        DirectResetFreq ....    20
 Integral Threshold     Thresh          ....  1.000e-10 Eh
 Primitive CutOff       TCut            ....  1.000e-11 Eh

Convergence Tolerance:
 Convergence Check Mode ConvCheckMode   .... Total+1el-Energy
 Convergence forced     ConvForced      .... 0
 Energy Change          TolE            ....  1.000e-06 Eh
 1-El. energy change                    ....  1.000e-03 Eh
 Orbital Gradient       TolG            ....  5.000e-05
 Orbital Rotation angle TolX            ....  5.000e-05
 DIIS Error             TolErr          ....  1.000e-06


Diagonalization of the overlap matrix:
Smallest eigenvalue                        ... 4.360e-08
Time for diagonalization                   ...    0.106 sec
Threshold for overlap eigenvalues          ... 1.000e-08
Number of eigenvalues below threshold      ... 0
Time for construction of square roots      ...    0.123 sec
Total time needed                          ...    0.236 sec

Time for model grid setup =    0.447 sec

------------------------------
INITIAL GUESS: MODEL POTENTIAL
------------------------------
Loading Hartree-Fock densities                     ... done
Calculating cut-offs                               ... done
Initializing the effective Hamiltonian             ... done
Setting up the integral package (SHARK)            ... done
Starting the Coulomb interaction                   ... done (   0.8 sec)
Reading the grid                                   ... done
Mapping shells                                     ... done
Starting the XC term evaluation                    ... done (   0.7 sec)
  promolecular density results
     # of electrons  =    245.965997508
     EX              =   -185.668450935
     EC              =     -8.168102862
     EX+EC           =   -193.836553796
Transforming the Hamiltonian                       ... done (   0.1 sec)
Diagonalizing the Hamiltonian                      ... done (   0.1 sec)
Back transforming the eigenvectors                 ... done (   0.0 sec)
Now organizing SCF variables                       ... done
                      ------------------
                      INITIAL GUESS DONE (   2.2 sec)
                      ------------------
-------------------
DFT GRID GENERATION
-------------------

General Integration Accuracy     IntAcc      ... 4.388
Radial Grid Type                 RadialGrid  ... OptM3 with GC (2021)
Angular Grid (max. ang.)         AngularGrid ... 4 (Lebedev-302)
Angular grid pruning method      GridPruning ... 4 (adaptive)
Weight generation scheme         WeightScheme... Becke
Basis function cutoff            BFCut       ... 1.0000e-10
Integration weight cutoff        WCut        ... 1.0000e-14
Angular grids for H and He will be reduced by one unit
Partially contracted basis set               ... off
Rotationally invariant grid construction     ... off

Total number of grid points                  ...   354205
Total number of batches                      ...     5573
Average number of points per batch           ...       63
Average number of grid points per atom       ...     4320
Time for grid setup =    1.802 sec

--------------------
COSX GRID GENERATION
--------------------

GRIDX 1
-------
General Integration Accuracy     IntAcc      ... 3.816
Radial Grid Type                 RadialGrid  ... OptM3 with GC (2021)
Angular Grid (max. ang.)         AngularGrid ... 1 (Lebedev-50)
Angular grid pruning method      GridPruning ... 4 (adaptive)
Weight generation scheme         WeightScheme... Becke
Basis function cutoff            BFCut       ... 1.0000e-10
Integration weight cutoff        WCut        ... 1.0000e-14
Angular grids for H and He will be reduced by one unit
Partially contracted basis set               ... on
Rotationally invariant grid construction     ... off

Total number of grid points                  ...    44006
Total number of batches                      ...      731
Average number of points per batch           ...       60
Average number of grid points per atom       ...      537
UseSFitting                                  ... on

GRIDX 2
-------
General Integration Accuracy     IntAcc      ... 4.020
Radial Grid Type                 RadialGrid  ... OptM3 with GC (2021)
Angular Grid (max. ang.)         AngularGrid ... 2 (Lebedev-110)
Angular grid pruning method      GridPruning ... 4 (adaptive)
Weight generation scheme         WeightScheme... Becke
Basis function cutoff            BFCut       ... 1.0000e-10
Integration weight cutoff        WCut        ... 1.0000e-14
Angular grids for H and He will be reduced by one unit
Partially contracted basis set               ... on
Rotationally invariant grid construction     ... off

Total number of grid points                  ...    96298
Total number of batches                      ...     1543
Average number of points per batch           ...       62
Average number of grid points per atom       ...     1174
UseSFitting                                  ... on

GRIDX 3
-------
General Integration Accuracy     IntAcc      ... 4.338
Radial Grid Type                 RadialGrid  ... OptM3 with GC (2021)
Angular Grid (max. ang.)         AngularGrid ... 3 (Lebedev-194)
Angular grid pruning method      GridPruning ... 4 (adaptive)
Weight generation scheme         WeightScheme... Becke
Basis function cutoff            BFCut       ... 1.0000e-10
Integration weight cutoff        WCut        ... 1.0000e-14
Angular grids for H and He will be reduced by one unit
Partially contracted basis set               ... on
Rotationally invariant grid construction     ... off

Total number of grid points                  ...   213251
Total number of batches                      ...     3373
Average number of points per batch           ...       63
Average number of grid points per atom       ...     2601
UseSFitting                                  ... on

Time for X-Grid setup             =    3.836 sec


--------------------
CPCM SOLVATION MODEL
--------------------
CPCM parameters:
  Epsilon                                         ...      80.4000
  Refrac                                          ...       1.3300
  Rsolv                                           ...       1.3000
  Surface type                                    ... GAUSSIAN VDW
  Epsilon function type                           ...         CPCM
Radii:
 Radius for O  used is    3.4469 Bohr (=   1.8240 Ang.)
 Radius for C  used is    3.8550 Bohr (=   2.0400 Ang.)
 Radius for H  used is    2.4944 Bohr (=   1.3200 Ang.)
Calculating surface                               ...        done! (  0.0s)
GEPOL surface points                              ...         3635
GEPOL Volume                                      ...    3768.0901
GEPOL Surface-area                                ...    1685.8902
Calculating surface distance matrix               ...        done! (  0.1s)
Performing Cholesky decomposition & store         ...        done! (  0.5s)
Overall time for CPCM initialization              ...                 0.6s
--------------
SCF ITERATIONS
--------------
ITER       Energy         Delta-E        Max-DP      RMS-DP      [F,P]     Damp
               ***  Starting incremental Fock matrix formation  ***
  0  -1321.9939802706   0.00000000000017.83306588  0.04600836  0.2305285 0.7000
  1  -1322.4325802837  -0.438600013144 8.50993054  0.02820665  0.0972210 0.7000
                               ***Turning on DIIS***
  2  -1322.6118058675  -0.17922558377127.37086533  0.09666013  0.0363628 0.0000
  3  -1322.8675280145  -0.25572214701778.90886400  0.15810540  0.0527736 0.0000
  4  -1322.9408327157  -0.073304701239147.80290840  0.33350521  0.0111463 0.0000
  5  -1322.9436131587  -0.002780442980488.31557635  1.13000129  0.0084312 0.0000
                      *** Initiating the SOSCF procedure ***
                           *** Shutting down DIIS ***
                      *** Re-Reading the Fockian *** 
                      *** Removing any level shift *** 
ITER      Energy       Delta-E        Grad      Rot      Max-DP    RMS-DP
  6  -1322.94383082  -0.0002176616  0.000199  0.000199 188.447144  0.382320
               *** Restarting incremental Fock matrix formation ***
  7  -1322.94383264  -0.0000018203  0.000243  0.001369 264.068918  0.571169
  8  -1322.94383909  -0.0000064446  0.000492  0.002409 484.223321  1.209176
  9  -1322.94366672   0.0001723660  0.000537  0.019880 13796.970781 32.387156
 10  -1322.93861702   0.0050497016  0.002982  0.015268 12185.662243 27.934052
 11  -1322.94302534  -0.0044083189  0.000823  0.007273 2366.638308  5.656044
 12  -1322.94370652  -0.0006811873  0.001636  0.005179 968.550622  3.071562
 13  -1322.94335374   0.0003527885  0.000417  0.001753 1550.215512  3.862606
 14  -1322.94260544   0.0007482912  0.000901  0.001070 264.876367  1.085455
 15  -1322.94290578  -0.0003003369  0.000355  0.002952 1981.181724  3.436265
 16  -1322.94252314   0.0003826426  0.000940  0.012859 9196.252239 20.334790
 17  -1322.93943072   0.0030924212  0.004432  0.041912 65076.185679 149.901695
 18  -1322.90663240   0.0327983163  0.010078  0.042787 66608.589120 152.533220
 19  -1322.93979661  -0.0331642102  0.004978  0.001843 1155.935859  2.623096

 WARNING: the maximum gradient error descreased on average only by a factor   0.7
          during the last 20 iterations

                      *** Initiating the TRAH-SCF procedure ***

              ***Rediagonalizing the Fockian in SOSCF/NRSCF***

TRAH GRIDX
----------

General Integration Accuracy     IntAcc      ... 3.067
Radial Grid Type                 RadialGrid  ... OptM3 with GC (2021)
Angular Grid (max. ang.)         AngularGrid ... 1 (Lebedev-50)
Angular grid pruning method      GridPruning ... 4 (adaptive)
Weight generation scheme         WeightScheme... Becke
Basis function cutoff            BFCut       ... 1.0000e-10
Integration weight cutoff        WCut        ... 1.0000e-14
Angular grids for H and He will be reduced by one unit
Partially contracted basis set               ... on
Rotationally invariant grid construction     ... off

Total number of grid points                  ...    23029
Total number of batches                      ...      397
Average number of points per batch           ...       58
Average number of grid points per atom       ...      281


TRAH GRID
---------

General Integration Accuracy     IntAcc      ... 3.467
Radial Grid Type                 RadialGrid  ... OptM3 with GC (2021)
Angular Grid (max. ang.)         AngularGrid ... 1 (Lebedev-50)
Angular grid pruning method      GridPruning ... 4 (adaptive)
Weight generation scheme         WeightScheme... Becke
Basis function cutoff            BFCut       ... 1.0000e-10
Integration weight cutoff        WCut        ... 1.0000e-14
Angular grids for H and He will be reduced by one unit
Partially contracted basis set               ... off
Rotationally invariant grid construction     ... off

Total number of grid points                  ...    47609
Total number of batches                      ...      780
Average number of points per batch           ...       61
Average number of grid points per atom       ...      581

 --------------------------------------------------------------------------------------------
   Iter.        energy            ||Error||_2        Shift      TRadius  Mac/Mic        Rej.
 --------------------------------------------------------------------------------------------
    0      -1322.940081819038     1.806562e-01                     0.400 (TRAH MAcro)   No
    0     dE    -2.603291e-03     1.489798e-01    -5.2023e-03      0.029 (TRAH MIcro)
    0     dE    -4.048064e-03     1.797980e-02    -8.0747e-03      0.052 (TRAH MIcro)
    0     dE    -4.063668e-03     1.759228e-03    -8.1056e-03      0.052 (TRAH MIcro)
    1      -1322.943967609740     2.751110e-03                     0.480 (TRAH MAcro)   No
    1     dE    -3.202348e-07     3.212779e-03    -6.4047e-07      0.000 (TRAH MIcro)
    1     dE    -6.147786e-07     5.551877e-04    -1.2296e-06      0.001 (TRAH MIcro)
    1     dE    -6.422460e-07     1.010503e-04    -1.2845e-06      0.001 (TRAH MIcro)
    2      -1322.943968347163     1.040578e-04                           (NR   MAcro)
    2     dE    -6.758138e-10     3.661644e-05                           (NR   MIcro)
    2     dE    -7.877206e-10     1.040336e-05                           (NR   MIcro)
    2     dE    -7.966245e-10     3.499083e-06                           (NR   MIcro)
    3      -1322.943968350165     3.509747e-06                           (NR   MAcro)

               *****************************************************
               *                     SUCCESS                       *
               *           SCF CONVERGED AFTER  33 CYCLES          *
               *****************************************************

Old exchange energy                            =    -38.019995726 Eh
New exchange energy                            =    -38.019994532 Eh
Exchange energy change after final integration =      0.000001193 Eh
Total energy after final integration           =  -1322.943967157 Eh
Final COS-X integration done in                =    43.764 sec

----------------
TOTAL SCF ENERGY
----------------

Total Energy       :        -1322.94396716 Eh          -35999.13551 eV

Components:
Nuclear Repulsion  :         3751.00515136 Eh          102070.03931 eV
Electronic Energy  :        -5073.94911852 Eh         -138069.17482 eV
One Electron Energy:        -9256.99823548 Eh         -251895.72812 eV
Two Electron Energy:         4183.04911697 Eh          113826.55330 eV
Max COSX asymmetry :            0.00007745 Eh               0.00211 eV
CPCM Dielectric    :           -0.01970001 Eh              -0.53606 eV

Virial components:
Potential Energy   :        -2638.20912507 Eh          -71789.31999 eV
Kinetic Energy     :         1315.26515791 Eh           35790.18448 eV
Virial Ratio       :            2.00583822


DFT components:
N(Alpha)           :      123.000204002407 electrons
N(Beta)            :      123.000204002407 electrons
N(Total)           :      246.000408004814 electrons
E(X)               :     -150.672370799339 Eh       
E(C)               :       -9.592246239472 Eh       
E(XC)              :     -160.264617038811 Eh       
DFET-embed. en.    :        0.000000000000 Eh       
CPCM Solvation Model Properties:
Surface-charge          :           -0.05579328
Charge-correction       :            0.00017111 Eh               0.00466 eV
Free-energy (cav+disp)  :  This term is not implemented in the current solvation scheme

---------------
SCF CONVERGENCE
---------------

  Last Energy change         ...   -3.0013e-09  Tolerance :   1.0000e-06
  Last Orbital Gradient      ...    3.5097e-06  Tolerance :   5.0000e-05
  Last Orbital Rotation      ...    2.1777e-05

             **** THE GBW FILE WAS UPDATED (betulin_optimized.gbw) ****
             **** DENSITY betulin_optimized.scfp WAS UPDATED ****
             **** ENERGY FILE WAS UPDATED (betulin_optimized.en.tmp) ****
             **** THE GBW FILE WAS UPDATED (betulin_optimized.gbw) ****
             **** DENSITY betulin_optimized.scfp WAS UPDATED ****
----------------
ORBITAL ENERGIES
----------------

  NO   OCC          E(Eh)            E(eV) 
   0   2.0000     -19.149620      -521.0877 
   1   2.0000     -19.142476      -520.8933 
   2   2.0000     -10.218088      -278.0483 
   3   2.0000     -10.214220      -277.9431 
   4   2.0000     -10.186364      -277.1850 
   5   2.0000     -10.182583      -277.0822 
   6   2.0000     -10.180176      -277.0167 
   7   2.0000     -10.178007      -276.9576 
   8   2.0000     -10.176591      -276.9191 
   9   2.0000     -10.174855      -276.8719 
  10   2.0000     -10.173946      -276.8471 
  11   2.0000     -10.166487      -276.6442 
  12   2.0000     -10.166476      -276.6439 
  13   2.0000     -10.166455      -276.6433 
  14   2.0000     -10.164330      -276.5855 
  15   2.0000     -10.164162      -276.5809 
  16   2.0000     -10.163733      -276.5692 
  17   2.0000     -10.162911      -276.5469 
  18   2.0000     -10.161593      -276.5110 
  19   2.0000     -10.160679      -276.4861 
  20   2.0000     -10.159502      -276.4541 
  21   2.0000     -10.159365      -276.4504 
  22   2.0000     -10.159013      -276.4408 
  23   2.0000     -10.158215      -276.4191 
  24   2.0000     -10.157430      -276.3977 
  25   2.0000     -10.156674      -276.3772 
  26   2.0000     -10.156095      -276.3614 
  27   2.0000     -10.156089      -276.3612 
  28   2.0000     -10.154259      -276.3114 
  29   2.0000     -10.151359      -276.2325 
  30   2.0000     -10.149814      -276.1905 
  31   2.0000     -10.145832      -276.0821 
  32   2.0000      -1.016665       -27.6649 
  33   2.0000      -1.013253       -27.5720 
  34   2.0000      -0.859604       -23.3910 
  35   2.0000      -0.844984       -22.9932 
  36   2.0000      -0.821575       -22.3562 
  37   2.0000      -0.798920       -21.7397 
  38   2.0000      -0.782667       -21.2974 
  39   2.0000      -0.778423       -21.1820 
  40   2.0000      -0.763075       -20.7643 
  41   2.0000      -0.741450       -20.1759 
  42   2.0000      -0.731912       -19.9163 
  43   2.0000      -0.721971       -19.6458 
  44   2.0000      -0.706641       -19.2287 
  45   2.0000      -0.691469       -18.8158 
  46   2.0000      -0.680872       -18.5275 
  47   2.0000      -0.676174       -18.3996 
  48   2.0000      -0.672491       -18.2994 
  49   2.0000      -0.661123       -17.9901 
  50   2.0000      -0.659762       -17.9530 
  51   2.0000      -0.658111       -17.9081 
  52   2.0000      -0.643962       -17.5231 
  53   2.0000      -0.610668       -16.6171 
  54   2.0000      -0.601995       -16.3811 
  55   2.0000      -0.590726       -16.0745 
  56   2.0000      -0.574450       -15.6316 
  57   2.0000      -0.569975       -15.5098 
  58   2.0000      -0.545753       -14.8507 
  59   2.0000      -0.539916       -14.6919 
  60   2.0000      -0.526816       -14.3354 
  61   2.0000      -0.516024       -14.0417 
  62   2.0000      -0.505223       -13.7478 
  63   2.0000      -0.498507       -13.5651 
  64   2.0000      -0.487394       -13.2627 
  65   2.0000      -0.484403       -13.1813 
  66   2.0000      -0.473598       -12.8873 
  67   2.0000      -0.467312       -12.7162 
  68   2.0000      -0.463894       -12.6232 
  69   2.0000      -0.460294       -12.5252 
  70   2.0000      -0.451619       -12.2892 
  71   2.0000      -0.449515       -12.2319 
  72   2.0000      -0.446557       -12.1514 
  73   2.0000      -0.438505       -11.9323 
  74   2.0000      -0.436660       -11.8821 
  75   2.0000      -0.430505       -11.7146 
  76   2.0000      -0.422954       -11.5092 
  77   2.0000      -0.416323       -11.3287 
  78   2.0000      -0.413216       -11.2442 
  79   2.0000      -0.410790       -11.1782 
  80   2.0000      -0.409369       -11.1395 
  81   2.0000      -0.402212       -10.9447 
  82   2.0000      -0.397696       -10.8218 
  83   2.0000      -0.394750       -10.7417 
  84   2.0000      -0.393683       -10.7127 
  85   2.0000      -0.388662       -10.5760 
  86   2.0000      -0.381925       -10.3927 
  87   2.0000      -0.378546       -10.3008 
  88   2.0000      -0.376868       -10.2551 
  89   2.0000      -0.369906       -10.0656 
  90   2.0000      -0.367451        -9.9989 
  91   2.0000      -0.363692        -9.8966 
  92   2.0000      -0.362202        -9.8560 
  93   2.0000      -0.358881        -9.7657 
  94   2.0000      -0.357252        -9.7213 
  95   2.0000      -0.355180        -9.6649 
  96   2.0000      -0.353341        -9.6149 
  97   2.0000      -0.351036        -9.5522 
  98   2.0000      -0.346894        -9.4395 
  99   2.0000      -0.343487        -9.3468 
 100   2.0000      -0.337431        -9.1820 
 101   2.0000      -0.333882        -9.0854 
 102   2.0000      -0.332525        -9.0485 
 103   2.0000      -0.327727        -8.9179 
 104   2.0000      -0.325741        -8.8639 
 105   2.0000      -0.324190        -8.8217 
 106   2.0000      -0.319739        -8.7006 
 107   2.0000      -0.317027        -8.6267 
 108   2.0000      -0.313711        -8.5365 
 109   2.0000      -0.309366        -8.4183 
 110   2.0000      -0.305475        -8.3124 
 111   2.0000      -0.301649        -8.2083 
 112   2.0000      -0.300369        -8.1735 
 113   2.0000      -0.298706        -8.1282 
 114   2.0000      -0.291703        -7.9377 
 115   2.0000      -0.285553        -7.7703 
 116   2.0000      -0.280355        -7.6289 
 117   2.0000      -0.277058        -7.5391 
 118   2.0000      -0.266910        -7.2630 
 119   2.0000      -0.263779        -7.1778 
 120   2.0000      -0.255487        -6.9521 
 121   2.0000      -0.250399        -6.8137 
 122   2.0000      -0.234791        -6.3890 
 123   0.0000      -0.005240        -0.1426 
 124   0.0000      -0.000933        -0.0254 
 125   0.0000       0.002370         0.0645 
 126   0.0000       0.004539         0.1235 
 127   0.0000       0.007255         0.1974 
 128   0.0000       0.010484         0.2853 
 129   0.0000       0.015764         0.4290 
 130   0.0000       0.017820         0.4849 
 131   0.0000       0.021956         0.5974 
 132   0.0000       0.024389         0.6637 
 133   0.0000       0.028744         0.7822 
 134   0.0000       0.028989         0.7888 
 135   0.0000       0.030802         0.8382 
 136   0.0000       0.036061         0.9813 
 137   0.0000       0.036596         0.9958 
 138   0.0000       0.043071         1.1720 
 139   0.0000       0.045339         1.2337 
 140   0.0000       0.047470         1.2917 
 141   0.0000       0.049362         1.3432 
 142   0.0000       0.050283         1.3683 
 143   0.0000       0.054506         1.4832 
 144   0.0000       0.057821         1.5734 
 145   0.0000       0.060192         1.6379 
 146   0.0000       0.061242         1.6665 
 147   0.0000       0.063005         1.7144 
 148   0.0000       0.067173         1.8279 
 149   0.0000       0.071669         1.9502 
 150   0.0000       0.074270         2.0210 
 151   0.0000       0.076991         2.0950 
 152   0.0000       0.077769         2.1162 
 153   0.0000       0.078687         2.1412 
 154   0.0000       0.081970         2.2305 
 155   0.0000       0.084611         2.3024 
 156   0.0000       0.086714         2.3596 
 157   0.0000       0.088277         2.4021 
 158   0.0000       0.089720         2.4414 
 159   0.0000       0.091370         2.4863 
 160   0.0000       0.094067         2.5597 
 161   0.0000       0.095767         2.6059 
 162   0.0000       0.097748         2.6599 
 163   0.0000       0.101553         2.7634 
 164   0.0000       0.102429         2.7872 
 165   0.0000       0.105471         2.8700 
 166   0.0000       0.107213         2.9174 
 167   0.0000       0.108254         2.9457 
 168   0.0000       0.109181         2.9710 
 169   0.0000       0.111656         3.0383 
 170   0.0000       0.114120         3.1054 
 171   0.0000       0.116101         3.1593 
 172   0.0000       0.116851         3.1797 
 173   0.0000       0.119271         3.2455 
 174   0.0000       0.121627         3.3096 
 175   0.0000       0.122428         3.3314 
 176   0.0000       0.122984         3.3466 
 177   0.0000       0.124513         3.3882 
 178   0.0000       0.126352         3.4382 
 179   0.0000       0.128160         3.4874 
 180   0.0000       0.129185         3.5153 
 181   0.0000       0.130677         3.5559 
 182   0.0000       0.133474         3.6320 
 183   0.0000       0.134110         3.6493 
 184   0.0000       0.135544         3.6883 
 185   0.0000       0.137340         3.7372 
 186   0.0000       0.139219         3.7883 
 187   0.0000       0.140162         3.8140 
 188   0.0000       0.142926         3.8892 
 189   0.0000       0.143839         3.9140 
 190   0.0000       0.144366         3.9284 
 191   0.0000       0.145203         3.9512 
 192   0.0000       0.146947         3.9986 
 193   0.0000       0.147972         4.0265 
 194   0.0000       0.149442         4.0665 
 195   0.0000       0.150687         4.1004 
 196   0.0000       0.151319         4.1176 
 197   0.0000       0.153516         4.1774 
 198   0.0000       0.154035         4.1915 
 199   0.0000       0.154461         4.2031 
 200   0.0000       0.156507         4.2588 
 201   0.0000       0.159168         4.3312 
 202   0.0000       0.160066         4.3556 
 203   0.0000       0.160963         4.3800 
 204   0.0000       0.162830         4.4308 
 205   0.0000       0.163804         4.4573 
 206   0.0000       0.165425         4.5014 
 207   0.0000       0.167214         4.5501 
 208   0.0000       0.167487         4.5576 
 209   0.0000       0.168192         4.5767 
 210   0.0000       0.170559         4.6411 
 211   0.0000       0.171406         4.6642 
 212   0.0000       0.173222         4.7136 
 213   0.0000       0.175135         4.7657 
 214   0.0000       0.177086         4.8188 
 215   0.0000       0.178058         4.8452 
 216   0.0000       0.179364         4.8807 
 217   0.0000       0.180830         4.9206 
 218   0.0000       0.181143         4.9292 
 219   0.0000       0.184301         5.0151 
 220   0.0000       0.184748         5.0273 
 221   0.0000       0.185863         5.0576 
 222   0.0000       0.188157         5.1200 
 223   0.0000       0.189584         5.1589 
 224   0.0000       0.190055         5.1717 
 225   0.0000       0.191550         5.2123 
 226   0.0000       0.194281         5.2866 
 227   0.0000       0.196090         5.3359 
 228   0.0000       0.197931         5.3860 
 229   0.0000       0.198662         5.4059 
 230   0.0000       0.200690         5.4611 
 231   0.0000       0.201727         5.4893 
 232   0.0000       0.204314         5.5597 
 233   0.0000       0.206045         5.6068 
 234   0.0000       0.208034         5.6609 
 235   0.0000       0.209782         5.7085 
 236   0.0000       0.211122         5.7449 
 237   0.0000       0.211816         5.7638 
 238   0.0000       0.212840         5.7917 
 239   0.0000       0.215425         5.8620 
 240   0.0000       0.216502         5.8913 
 241   0.0000       0.217841         5.9278 
 242   0.0000       0.219124         5.9627 
 243   0.0000       0.222264         6.0481 
 244   0.0000       0.223768         6.0890 
 245   0.0000       0.225024         6.1232 
 246   0.0000       0.227411         6.1882 
 247   0.0000       0.227823         6.1994 
 248   0.0000       0.229212         6.2372 
 249   0.0000       0.229503         6.2451 
 250   0.0000       0.230468         6.2713 
 251   0.0000       0.232162         6.3174 
 252   0.0000       0.234489         6.3808 
 253   0.0000       0.236296         6.4299 
 254   0.0000       0.238943         6.5020 
 255   0.0000       0.239515         6.5175 
 256   0.0000       0.243379         6.6227 
 257   0.0000       0.244523         6.6538 
 258   0.0000       0.245920         6.6918 
 259   0.0000       0.249497         6.7891 
 260   0.0000       0.249660         6.7936 
 261   0.0000       0.252134         6.8609 
 262   0.0000       0.252603         6.8737 
 263   0.0000       0.255322         6.9477 
 264   0.0000       0.257791         7.0149 
 265   0.0000       0.258057         7.0221 
 266   0.0000       0.261223         7.1082 
 267   0.0000       0.263592         7.1727 
 268   0.0000       0.264178         7.1886 
 269   0.0000       0.265464         7.2236 
 270   0.0000       0.266440         7.2502 
 271   0.0000       0.267217         7.2713 
 272   0.0000       0.269783         7.3412 
 273   0.0000       0.272481         7.4146 
 274   0.0000       0.274084         7.4582 
 275   0.0000       0.276501         7.5240 
 276   0.0000       0.278709         7.5841 
 277   0.0000       0.281781         7.6677 
 278   0.0000       0.281959         7.6725 
 279   0.0000       0.282718         7.6932 
 280   0.0000       0.284723         7.7477 
 281   0.0000       0.286783         7.8038 
 282   0.0000       0.287874         7.8335 
 283   0.0000       0.290505         7.9050 
 284   0.0000       0.292309         7.9541 
 285   0.0000       0.294003         8.0002 
 286   0.0000       0.295037         8.0284 
 287   0.0000       0.297287         8.0896 
 288   0.0000       0.298163         8.1134 
 289   0.0000       0.300860         8.1868 
 290   0.0000       0.304275         8.2797 
 291   0.0000       0.304849         8.2954 
 292   0.0000       0.307087         8.3563 
 293   0.0000       0.309275         8.4158 
 294   0.0000       0.313932         8.5425 
 295   0.0000       0.315374         8.5818 
 296   0.0000       0.317357         8.6357 
 297   0.0000       0.318729         8.6731 
 298   0.0000       0.319781         8.7017 
 299   0.0000       0.323125         8.7927 
 300   0.0000       0.324074         8.8185 
 301   0.0000       0.327156         8.9024 
 302   0.0000       0.328134         8.9290 
 303   0.0000       0.329285         8.9603 
 304   0.0000       0.330336         8.9889 
 305   0.0000       0.332291         9.0421 
 306   0.0000       0.333798         9.0831 
 307   0.0000       0.336190         9.1482 
 308   0.0000       0.338190         9.2026 
 309   0.0000       0.344364         9.3706 
 310   0.0000       0.346337         9.4243 
 311   0.0000       0.347829         9.4649 
 312   0.0000       0.348355         9.4792 
 313   0.0000       0.350913         9.5488 
 314   0.0000       0.352076         9.5805 
 315   0.0000       0.354687         9.6515 
 316   0.0000       0.356467         9.7000 
 317   0.0000       0.356989         9.7142 
 318   0.0000       0.361602         9.8397 
 319   0.0000       0.363640         9.8951 
 320   0.0000       0.367834        10.0093 
 321   0.0000       0.369453        10.0533 
 322   0.0000       0.372746        10.1429 
 323   0.0000       0.373840        10.1727 
 324   0.0000       0.375342        10.2136 
[...]
199:   3020.17   0.006644   33.57  0.000686  ( 0.019448 -0.016804  0.005085)
200:   3022.61   0.004360   22.04  0.000450  ( 0.001893  0.007140  0.019890)
201:   3023.25   0.021998  111.17  0.002271  (-0.026048  0.007481 -0.039194)
202:   3026.26   0.006998   35.37  0.000722  (-0.024778  0.010190  0.001975)
203:   3027.47   0.001964    9.92  0.000202  (-0.008764 -0.002415 -0.010945)
204:   3028.67   0.010949   55.33  0.001128  (-0.014378 -0.020083  0.022763)
205:   3032.66   0.002796   14.13  0.000288  ( 0.013781  0.009699 -0.001941)
206:   3033.39   0.013044   65.92  0.001342  (-0.011720  0.020783  0.027797)
207:   3037.78   0.003679   18.59  0.000378  (-0.016221 -0.005434  0.009236)
208:   3039.51   0.007215   36.46  0.000741  ( 0.000214 -0.026173  0.007460)
209:   3039.75   0.011049   55.84  0.001134  (-0.010263 -0.021129  0.024136)
210:   3040.80   0.014584   73.70  0.001497  ( 0.015684 -0.019774 -0.029320)
211:   3042.49   0.010122   51.15  0.001038  ( 0.024801  0.020300  0.003312)
212:   3043.35   0.033311  168.34  0.003416  (-0.021388 -0.050394 -0.020463)
213:   3048.95   0.003549   17.94  0.000363  (-0.002410 -0.001060 -0.018877)
214:   3051.15   0.018330   92.63  0.001875  (-0.002389 -0.032975  0.027959)
215:   3052.10   0.003806   19.24  0.000389  (-0.000874  0.015823  0.011750)
216:   3053.11   0.009272   46.86  0.000948  (-0.000498 -0.027328 -0.014166)
217:   3054.33   0.011658   58.92  0.001191  (-0.032611 -0.008874 -0.006996)
218:   3061.30   0.014654   74.06  0.001494  ( 0.003451  0.022043  0.031560)
219:   3066.30   0.003286   16.61  0.000334  ( 0.002008  0.014716 -0.010669)
220:   3068.16   0.006808   34.40  0.000692  (-0.019905 -0.007304  0.015584)
221:   3070.26   0.001110    5.61  0.000113  ( 0.006153 -0.008550 -0.001370)
222:   3070.91   0.019387   97.97  0.001970  (-0.009244  0.042990  0.006036)
223:   3076.14   0.007916   40.00  0.000803  (-0.007683  0.008298  0.025984)
224:   3076.58   0.006489   32.79  0.000658  (-0.020683  0.006340  0.013792)
225:   3080.62   0.001254    6.34  0.000127  (-0.006010 -0.004643 -0.008326)
226:   3082.02   0.010578   53.46  0.001071  (-0.029691  0.006340  0.012217)
227:   3083.06   0.058942  297.87  0.005966  (-0.018201  0.014745 -0.073603)
228:   3085.94   0.020787  105.05  0.002102  (-0.028692 -0.015171  0.032383)
229:   3094.53   0.005786   29.24  0.000583  (-0.022377  0.009091 -0.000268)
230:   3095.49   0.007463   37.71  0.000752  (-0.003770 -0.008088 -0.025937)
231:   3096.86   0.052565  265.64  0.005297  (-0.013705  0.025158 -0.066903)
232:   3099.31   0.019612   99.11  0.001975  (-0.022981  0.038013 -0.001247)
233:   3109.47   0.008047   40.67  0.000808  (-0.006367 -0.027508 -0.003221)
234:   3114.94   0.008094   40.90  0.000811  ( 0.001311 -0.028411  0.001397)
235:   3116.60   0.011361   57.41  0.001138  (-0.026413 -0.020960 -0.000782)
236:   3118.18   0.012751   64.44  0.001276  (-0.033198 -0.013099  0.001551)
237:   3124.78   0.004007   20.25  0.000400  ( 0.001962  0.015476  0.012521)
238:   3126.76   0.009974   50.41  0.000995  ( 0.021549 -0.021824 -0.007405)
239:   3135.00   0.011836   59.81  0.001178  ( 0.018638  0.012453  0.025994)
240:   3137.87   0.008149   41.18  0.000810  (-0.006688  0.027626 -0.001588)
241:   3138.27   0.005617   28.38  0.000559  ( 0.019949 -0.009535 -0.008345)
242:   3147.99   0.009623   48.63  0.000954  ( 0.014421  0.027029 -0.003926)
243:   3208.88   0.006598   33.34  0.000642  ( 0.000333  0.017685 -0.018132)
244:   3797.27   0.012413   62.73  0.001020  ( 0.013814 -0.027710 -0.007839)
245:   3814.52   0.014689   74.23  0.001202  (-0.012105 -0.031919 -0.006027)

* The epsilon (eps) is given for a Dirac delta lineshape.
** The dipole moment derivative (T) already includes vibrational overlap.

The first frequency considered to be a vibration is 6
The total number of vibrations considered is 240


--------------------------
THERMOCHEMISTRY AT 298.15K
--------------------------

Temperature         ... 298.15 K
Pressure            ... 1.00 atm
Total Mass          ... 442.73 AMU

Throughout the following assumptions are being made:
  (1) The electronic state is orbitally nondegenerate
  (2) There are no thermally accessible electronically excited states
  (3) Hindered rotations indicated by low frequency modes are not
      treated as such but are treated as vibrations and this may
      cause some error
  (4) All equations used are the standard statistical mechanics
      equations for an ideal gas
  (5) All vibrations are strictly harmonic

freq.      26.17  E(vib)   ...       0.56 
freq.      33.94  E(vib)   ...       0.55 
freq.      47.18  E(vib)   ...       0.53 
freq.      66.13  E(vib)   ...       0.50 
freq.      78.78  E(vib)   ...       0.49 
freq.      79.74  E(vib)   ...       0.49 
freq.      90.63  E(vib)   ...       0.47 
freq.      99.24  E(vib)   ...       0.46 
freq.     112.25  E(vib)   ...       0.45 
freq.     119.72  E(vib)   ...       0.44 
freq.     135.03  E(vib)   ...       0.42 
freq.     158.91  E(vib)   ...       0.39 
freq.     177.59  E(vib)   ...       0.37 
freq.     179.77  E(vib)   ...       0.37 
freq.     185.80  E(vib)   ...       0.37 
freq.     194.10  E(vib)   ...       0.36 
freq.     207.64  E(vib)   ...       0.34 
freq.     231.69  E(vib)   ...       0.32 
freq.     236.05  E(vib)   ...       0.32 
freq.     240.24  E(vib)   ...       0.31 
freq.     248.46  E(vib)   ...       0.31 
freq.     250.35  E(vib)   ...       0.30 
freq.     259.85  E(vib)   ...       0.30 
freq.     266.56  E(vib)   ...       0.29 
freq.     269.10  E(vib)   ...       0.29 
freq.     277.37  E(vib)   ...       0.28 
freq.     284.60  E(vib)   ...       0.28 
freq.     285.50  E(vib)   ...       0.28 
freq.     298.12  E(vib)   ...       0.27 
freq.     299.33  E(vib)   ...       0.26 
freq.     302.12  E(vib)   ...       0.26 
freq.     311.19  E(vib)   ...       0.26 
freq.     321.32  E(vib)   ...       0.25 
freq.     327.31  E(vib)   ...       0.24 
freq.     340.92  E(vib)   ...       0.23 
freq.     348.15  E(vib)   ...       0.23 
freq.     355.05  E(vib)   ...       0.22 
freq.     368.36  E(vib)   ...       0.21 
freq.     377.03  E(vib)   ...       0.21 
freq.     381.61  E(vib)   ...       0.21 
freq.     393.41  E(vib)   ...       0.20 
freq.     401.87  E(vib)   ...       0.19 
freq.     407.86  E(vib)   ...       0.19 
freq.     440.23  E(vib)   ...       0.17 
freq.     445.89  E(vib)   ...       0.17 
freq.     453.76  E(vib)   ...       0.16 
freq.     457.92  E(vib)   ...       0.16 
freq.     466.45  E(vib)   ...       0.16 
freq.     479.42  E(vib)   ...       0.15 
freq.     481.26  E(vib)   ...       0.15 
freq.     510.77  E(vib)   ...       0.14 
freq.     520.32  E(vib)   ...       0.13 
freq.     530.13  E(vib)   ...       0.13 
freq.     538.81  E(vib)   ...       0.12 
freq.     550.98  E(vib)   ...       0.12 
freq.     552.84  E(vib)   ...       0.12 
freq.     601.77  E(vib)   ...       0.10 
freq.     606.48  E(vib)   ...       0.10 
freq.     615.33  E(vib)   ...       0.10 
freq.     641.04  E(vib)   ...       0.09 
freq.     661.22  E(vib)   ...       0.08 
freq.     679.48  E(vib)   ...       0.08 
freq.     707.05  E(vib)   ...       0.07 
freq.     728.54  E(vib)   ...       0.06 
freq.     734.62  E(vib)   ...       0.06 
freq.     747.04  E(vib)   ...       0.06 
freq.     748.98  E(vib)   ...       0.06 
freq.     774.57  E(vib)   ...       0.05 
freq.     782.16  E(vib)   ...       0.05 
freq.     806.17  E(vib)   ...       0.05 
freq.     826.86  E(vib)   ...       0.04 
freq.     846.68  E(vib)   ...       0.04 
freq.     859.51  E(vib)   ...       0.04 
freq.     864.64  E(vib)   ...       0.04 
freq.     879.19  E(vib)   ...       0.04 
freq.     884.91  E(vib)   ...       0.04 
freq.     898.18  E(vib)   ...       0.03 
freq.     900.02  E(vib)   ...       0.03 
freq.     908.29  E(vib)   ...       0.03 
freq.     915.16  E(vib)   ...       0.03 
freq.     919.08  E(vib)   ...       0.03 
freq.     927.99  E(vib)   ...       0.03 
freq.     930.55  E(vib)   ...       0.03 
freq.     933.17  E(vib)   ...       0.03 
freq.     940.04  E(vib)   ...       0.03 
freq.     953.90  E(vib)   ...       0.03 
freq.     958.60  E(vib)   ...       0.03 
freq.     964.57  E(vib)   ...       0.03 
freq.     973.78  E(vib)   ...       0.03 
freq.     980.84  E(vib)   ...       0.02 
freq.     985.97  E(vib)   ...       0.02 
freq.     995.37  E(vib)   ...       0.02 
freq.    1002.83  E(vib)   ...       0.02 
freq.    1005.18  E(vib)   ...       0.02 
freq.    1011.74  E(vib)   ...       0.02 
freq.    1018.08  E(vib)   ...       0.02 
freq.    1019.19  E(vib)   ...       0.02 
freq.    1022.79  E(vib)   ...       0.02 
freq.    1028.92  E(vib)   ...       0.02 
freq.    1034.36  E(vib)   ...       0.02 
freq.    1045.49  E(vib)   ...       0.02 
freq.    1051.12  E(vib)   ...       0.02 
freq.    1061.17  E(vib)   ...       0.02 
freq.    1067.28  E(vib)   ...       0.02 
freq.    1078.34  E(vib)   ...       0.02 
freq.    1082.35  E(vib)   ...       0.02 
freq.    1090.89  E(vib)   ...       0.02 
freq.    1095.58  E(vib)   ...       0.02 
freq.    1106.77  E(vib)   ...       0.02 
freq.    1113.90  E(vib)   ...       0.01 
freq.    1120.72  E(vib)   ...       0.01 
freq.    1126.17  E(vib)   ...       0.01 
freq.    1130.61  E(vib)   ...       0.01 
freq.    1143.16  E(vib)   ...       0.01 
freq.    1146.11  E(vib)   ...       0.01 
freq.    1151.74  E(vib)   ...       0.01 
freq.    1160.14  E(vib)   ...       0.01 
freq.    1166.20  E(vib)   ...       0.01 
freq.    1179.43  E(vib)   ...       0.01 
freq.    1195.35  E(vib)   ...       0.01 
freq.    1201.83  E(vib)   ...       0.01 
freq.    1208.95  E(vib)   ...       0.01 
freq.    1215.17  E(vib)   ...       0.01 
freq.    1216.86  E(vib)   ...       0.01 
freq.    1219.53  E(vib)   ...       0.01 
freq.    1226.71  E(vib)   ...       0.01 
freq.    1229.04  E(vib)   ...       0.01 
freq.    1247.13  E(vib)   ...       0.01 
freq.    1257.77  E(vib)   ...       0.01 
freq.    1260.55  E(vib)   ...       0.01 
freq.    1272.09  E(vib)   ...       0.01 
freq.    1274.44  E(vib)   ...       0.01 
freq.    1287.28  E(vib)   ...       0.01 
freq.    1292.14  E(vib)   ...       0.01 
freq.    1296.40  E(vib)   ...       0.01 
freq.    1298.26  E(vib)   ...       0.01 
freq.    1309.13  E(vib)   ...       0.01 
freq.    1313.58  E(vib)   ...       0.01 
freq.    1327.12  E(vib)   ...       0.01 
freq.    1330.58  E(vib)   ...       0.01 
freq.    1343.50  E(vib)   ...       0.01 
freq.    1344.45  E(vib)   ...       0.01 
freq.    1347.71  E(vib)   ...       0.01 
freq.    1351.13  E(vib)   ...       0.01 
freq.    1359.60  E(vib)   ...       0.01 
freq.    1366.16  E(vib)   ...       0.01 
freq.    1370.91  E(vib)   ...       0.01 
freq.    1371.40  E(vib)   ...       0.01 
freq.    1372.92  E(vib)   ...       0.01 
freq.    1374.43  E(vib)   ...       0.01 
freq.    1379.46  E(vib)   ...       0.01 
freq.    1382.22  E(vib)   ...       0.01 
freq.    1386.28  E(vib)   ...       0.00 
freq.    1389.86  E(vib)   ...       0.00 
freq.    1391.36  E(vib)   ...       0.00 
freq.    1394.65  E(vib)   ...       0.00 
freq.    1397.73  E(vib)   ...       0.00 
freq.    1400.16  E(vib)   ...       0.00 
freq.    1406.45  E(vib)   ...       0.00 
freq.    1408.97  E(vib)   ...       0.00 
freq.    1413.71  E(vib)   ...       0.00 
freq.    1417.83  E(vib)   ...       0.00 
freq.    1421.22  E(vib)   ...       0.00 
freq.    1426.55  E(vib)   ...       0.00 
freq.    1431.48  E(vib)   ...       0.00 
freq.    1441.52  E(vib)   ...       0.00 
freq.    1463.84  E(vib)   ...       0.00 
freq.    1473.13  E(vib)   ...       0.00 
freq.    1474.13  E(vib)   ...       0.00 
freq.    1475.96  E(vib)   ...       0.00 
freq.    1476.02  E(vib)   ...       0.00 
freq.    1478.34  E(vib)   ...       0.00 
freq.    1478.57  E(vib)   ...       0.00 
freq.    1481.37  E(vib)   ...       0.00 
freq.    1482.08  E(vib)   ...       0.00 
freq.    1483.99  E(vib)   ...       0.00 
freq.    1485.98  E(vib)   ...       0.00 
freq.    1488.84  E(vib)   ...       0.00 
freq.    1490.26  E(vib)   ...       0.00 
freq.    1490.49  E(vib)   ...       0.00 
freq.    1493.20  E(vib)   ...       0.00 
freq.    1496.51  E(vib)   ...       0.00 
freq.    1498.06  E(vib)   ...       0.00 
freq.    1501.39  E(vib)   ...       0.00 
freq.    1504.21  E(vib)   ...       0.00 
freq.    1507.72  E(vib)   ...       0.00 
freq.    1509.41  E(vib)   ...       0.00 
freq.    1512.22  E(vib)   ...       0.00 
freq.    1520.56  E(vib)   ...       0.00 
freq.    1681.02  E(vib)   ...       0.00 
freq.    2977.87  E(vib)   ...       0.00 
freq.    2993.37  E(vib)   ...       0.00 
freq.    3017.86  E(vib)   ...       0.00 
freq.    3020.17  E(vib)   ...       0.00 
freq.    3022.61  E(vib)   ...       0.00 
freq.    3023.25  E(vib)   ...       0.00 
freq.    3026.26  E(vib)   ...       0.00 
freq.    3027.47  E(vib)   ...       0.00 
freq.    3028.67  E(vib)   ...       0.00 
freq.    3032.66  E(vib)   ...       0.00 
freq.    3033.39  E(vib)   ...       0.00 
freq.    3037.78  E(vib)   ...       0.00 
freq.    3039.51  E(vib)   ...       0.00 
freq.    3039.75  E(vib)   ...       0.00 
freq.    3040.80  E(vib)   ...       0.00 
freq.    3042.49  E(vib)   ...       0.00 
freq.    3043.35  E(vib)   ...       0.00 
freq.    3048.95  E(vib)   ...       0.00 
freq.    3051.15  E(vib)   ...       0.00 
freq.    3052.10  E(vib)   ...       0.00 
freq.    3053.11  E(vib)   ...       0.00 
freq.    3054.33  E(vib)   ...       0.00 
freq.    3061.30  E(vib)   ...       0.00 
freq.    3066.30  E(vib)   ...       0.00 
freq.    3068.16  E(vib)   ...       0.00 
freq.    3070.26  E(vib)   ...       0.00 
freq.    3070.91  E(vib)   ...       0.00 
freq.    3076.14  E(vib)   ...       0.00 
freq.    3076.58  E(vib)   ...       0.00 
freq.    3080.62  E(vib)   ...       0.00 
freq.    3082.02  E(vib)   ...       0.00 
freq.    3083.06  E(vib)   ...       0.00 
freq.    3085.94  E(vib)   ...       0.00 
freq.    3094.53  E(vib)   ...       0.00 
freq.    3095.49  E(vib)   ...       0.00 
freq.    3096.86  E(vib)   ...       0.00 
freq.    3099.31  E(vib)   ...       0.00 
freq.    3109.47  E(vib)   ...       0.00 
freq.    3114.94  E(vib)   ...       0.00 
freq.    3116.60  E(vib)   ...       0.00 
freq.    3118.18  E(vib)   ...       0.00 
freq.    3124.78  E(vib)   ...       0.00 
freq.    3126.76  E(vib)   ...       0.00 
freq.    3135.00  E(vib)   ...       0.00 
freq.    3137.87  E(vib)   ...       0.00 
freq.    3138.27  E(vib)   ...       0.00 
freq.    3147.99  E(vib)   ...       0.00 
freq.    3208.88  E(vib)   ...       0.00 
freq.    3797.27  E(vib)   ...       0.00 
freq.    3814.52  E(vib)   ...       0.00 

------------
INNER ENERGY
------------

The inner energy is: U= E(el) + E(ZPE) + E(vib) + E(rot) + E(trans)
    E(el)   - is the total energy from the electronic structure calculation
              = E(kin-el) + E(nuc-el) + E(el-el) + E(nuc-nuc)
    E(ZPE)  - the the zero temperature vibrational energy from the frequency calculation
    E(vib)  - the the finite temperature correction to E(ZPE) due to population
              of excited vibrational states
    E(rot)  - is the rotational thermal energy
    E(trans)- is the translational thermal energy

Summary of contributions to the inner energy U:
Electronic energy                ...  -1322.94396716 Eh
Zero point energy                ...      0.75036165 Eh     470.86 kcal/mol
Thermal vibrational correction   ...      0.02976510 Eh      18.68 kcal/mol
Thermal rotational correction    ...      0.00141627 Eh       0.89 kcal/mol
Thermal translational correction ...      0.00141627 Eh       0.89 kcal/mol
-----------------------------------------------------------------------
Total thermal energy                  -1322.16100787 Eh


Summary of corrections to the electronic energy:
(perhaps to be used in another calculation)
Total thermal correction                  0.03259764 Eh      20.46 kcal/mol
Non-thermal (ZPE) correction              0.75036165 Eh     470.86 kcal/mol
-----------------------------------------------------------------------
Total correction                          0.78295929 Eh     491.31 kcal/mol


--------
ENTHALPY
--------

The enthalpy is H = U + kB*T
                kB is Boltzmann's constant
Total free energy                 ...  -1322.16100787 Eh 
Thermal Enthalpy correction       ...      0.00094421 Eh       0.59 kcal/mol
-----------------------------------------------------------------------
Total Enthalpy                    ...  -1322.16006366 Eh


Note: Only C1 symmetry has been detected, increase convergence thresholds 
      if your molecule has a higher symmetry. Symmetry factor of 1.0 is   
      used for the rotational entropy correction. 
 

Note: Rotational entropy computed according to Herzberg 
Infrared and Raman Spectra, Chapter V,1, Van Nostrand Reinhold, 1945 
Point Group:  C1, Symmetry Number:   1  
Rotational constants in cm-1:     0.009700     0.002485     0.002219 

Vibrational entropy computed according to the QRRHO of S. Grimme
Chem.Eur.J. 2012 18 9955


-------
ENTROPY
-------

The entropy contributions are T*S = T*(S(el)+S(vib)+S(rot)+S(trans))
     S(el)   - electronic entropy
     S(vib)  - vibrational entropy
     S(rot)  - rotational entropy
     S(trans)- translational entropy
The entropies will be listed as multiplied by the temperature to get
units of energy

Electronic entropy                ...      0.00000000 Eh      0.00 kcal/mol
Vibrational entropy               ...      0.05060516 Eh     31.76 kcal/mol
Rotational entropy                ...      0.01741546 Eh     10.93 kcal/mol
Translational entropy             ...      0.02097835 Eh     13.16 kcal/mol
-----------------------------------------------------------------------
Final entropy term                ...      0.08899897 Eh     55.85 kcal/mol

In case the symmetry of your molecule has not been determined correctly
or in case you have a reason to use a different symmetry number we print 
out the resulting rotational entropy values for sn=1,12 :
 --------------------------------------------------------
|  sn= 1 | S(rot)=       0.01741546 Eh     10.93 kcal/mol|
|  sn= 2 | S(rot)=       0.01676100 Eh     10.52 kcal/mol|
|  sn= 3 | S(rot)=       0.01637817 Eh     10.28 kcal/mol|
|  sn= 4 | S(rot)=       0.01610655 Eh     10.11 kcal/mol|
|  sn= 5 | S(rot)=       0.01589586 Eh      9.97 kcal/mol|
|  sn= 6 | S(rot)=       0.01572372 Eh      9.87 kcal/mol|
|  sn= 7 | S(rot)=       0.01557817 Eh      9.78 kcal/mol|
|  sn= 8 | S(rot)=       0.01545209 Eh      9.70 kcal/mol|
|  sn= 9 | S(rot)=       0.01534088 Eh      9.63 kcal/mol|
|  sn=10 | S(rot)=       0.01524140 Eh      9.56 kcal/mol|
|  sn=11 | S(rot)=       0.01515141 Eh      9.51 kcal/mol|
|  sn=12 | S(rot)=       0.01506926 Eh      9.46 kcal/mol|
 --------------------------------------------------------


-------------------
GIBBS FREE ENERGY
-------------------

The Gibbs free energy is G = H - T*S

Total enthalpy                    ...  -1322.16006366 Eh 
Total entropy correction          ...     -0.08899897 Eh    -55.85 kcal/mol
-----------------------------------------------------------------------
Final Gibbs free energy         ...  -1322.24906263 Eh

For completeness - the Gibbs free energy minus the electronic energy
G-E(el)                           ...      0.69490453 Eh    436.06 kcal/mol


Timings for individual modules:

Sum of individual times         ...    12664.263 sec (= 211.071 min)
GTO integral calculation        ...        2.067 sec (=   0.034 min)   0.0 %
SCF iterations                  ...      776.116 sec (=  12.935 min)   6.1 %
Analytical frequency calculation...    11886.081 sec (= 198.101 min)  93.9 %
                             ****ORCA TERMINATED NORMALLY****
TOTAL RUN TIME: 0 days 3 hours 31 minutes 5 seconds 765 msec
