
                                 *****************
                                 * O   R   C   A *
                                 *****************

                                            #,                                       
                                            ###                                      
                                            ####                                     
                                            #####                                    
                                            ######                                   
                                           ########,                                 
                                     ,,################,,,,,                         
                               ,,#################################,,                 
                          ,,##########################################,,             
                       ,#########################################, ''#####,          
                    ,#############################################,,   '####,        
                  ,##################################################,,,,####,       
                ,###########''''           ''''###############################       
              ,#####''   ,,,,##########,,,,          '''####'''          '####       
            ,##' ,,,,###########################,,,                        '##       
           ' ,,###''''                  '''############,,,                           
         ,,##''                                '''############,,,,        ,,,,,,###''
      ,#''                                            '''#######################'''  
     '                                                          ''''####''''         
             ,#######,   #######,   ,#######,      ##                                
            ,#'     '#,  ##    ##  ,#'     '#,    #''#        ######   ,####,        
            ##       ##  ##   ,#'  ##            #'  '#       #        #'  '#        
            ##       ##  #######   ##           ,######,      #####,   #    #        
            '#,     ,#'  ##    ##  '#,     ,#' ,#      #,         ##   #,  ,#        
             '#######'   ##     ##  '#######'  #'      '#     #####' # '####'        



                  #######################################################
                  #                        -***-                        #
                  #          Department of theory and spectroscopy      #
                  #    Directorship and core code : Frank Neese         #
                  #        Max Planck Institute fuer Kohlenforschung    #
                  #                Kaiser Wilhelm Platz 1               #
                  #                 D-45470 Muelheim/Ruhr               #
                  #                      Germany                        #
                  #                                                     #
                  #                  All rights reserved                #
                  #                        -***-                        #
                  #######################################################


                         Program Version 5.0.4 -  RELEASE  -


 With contributions from (in alphabetic order):
   Daniel Aravena         : Magnetic Suceptibility
   Michael Atanasov       : Ab Initio Ligand Field Theory (pilot matlab implementation)
   Alexander A. Auer      : GIAO ZORA, VPT2 properties, NMR spectrum
   Ute Becker             : Parallelization
   Giovanni Bistoni       : ED, misc. LED, open-shell LED, HFLD
   Martin Brehm           : Molecular dynamics
   Dmytro Bykov           : SCF Hessian
   Vijay G. Chilkuri      : MRCI spin determinant printing, contributions to CSF-ICE
   Dipayan Datta          : RHF DLPNO-CCSD density
   Achintya Kumar Dutta   : EOM-CC, STEOM-CC
   Dmitry Ganyushin       : Spin-Orbit,Spin-Spin,Magnetic field MRCI
   Miquel Garcia          : C-PCM and meta-GGA Hessian, CC/C-PCM, Gaussian charge scheme
   Yang Guo               : DLPNO-NEVPT2, F12-NEVPT2, CIM, IAO-localization
   Andreas Hansen         : Spin unrestricted coupled pair/coupled cluster methods
   Benjamin Helmich-Paris : MC-RPA, TRAH-SCF, COSX integrals
   Lee Huntington         : MR-EOM, pCC
   Robert Izsak           : Overlap fitted RIJCOSX, COSX-SCS-MP3, EOM
   Marcus Kettner         : VPT2
   Christian Kollmar      : KDIIS, OOCD, Brueckner-CCSD(T), CCSD density, CASPT2, CASPT2-K
   Simone Kossmann        : Meta GGA functionals, TD-DFT gradient, OOMP2, MP2 Hessian
   Martin Krupicka        : Initial AUTO-CI
   Lucas Lang             : DCDCAS
   Marvin Lechner         : AUTO-CI (C++ implementation), FIC-MRCC
   Dagmar Lenk            : GEPOL surface, SMD
   Dimitrios Liakos       : Extrapolation schemes; Compound Job, initial MDCI parallelization
   Dimitrios Manganas     : Further ROCIS development; embedding schemes
   Dimitrios Pantazis     : SARC Basis sets
   Anastasios Papadopoulos: AUTO-CI, single reference methods and gradients
   Taras Petrenko         : DFT Hessian,TD-DFT gradient, ASA, ECA, R-Raman, ABS, FL, XAS/XES, NRVS
   Peter Pinski           : DLPNO-MP2, DLPNO-MP2 Gradient
   Christoph Reimann      : Effective Core Potentials
   Marius Retegan         : Local ZFS, SOC
   Christoph Riplinger    : Optimizer, TS searches, QM/MM, DLPNO-CCSD(T), (RO)-DLPNO pert. Triples
   Tobias Risthaus        : Range-separated hybrids, TD-DFT gradient, RPA, STAB
   Michael Roemelt        : Original ROCIS implementation
   Masaaki Saitow         : Open-shell DLPNO-CCSD energy and density
   Barbara Sandhoefer     : DKH picture change effects
   Avijit Sen             : IP-ROCIS
   Kantharuban Sivalingam : CASSCF convergence, NEVPT2, FIC-MRCI
   Bernardo de Souza      : ESD, SOC TD-DFT
   Georgi Stoychev        : AutoAux, RI-MP2 NMR, DLPNO-MP2 response
   Willem Van den Heuvel  : Paramagnetic NMR
   Boris Wezisla          : Elementary symmetry handling
   Frank Wennmohs         : Technical directorship


 We gratefully acknowledge several colleagues who have allowed us to
 interface, adapt or use parts of their codes:
   Stefan Grimme, W. Hujo, H. Kruse, P. Pracht,  : VdW corrections, initial TS optimization,
                  C. Bannwarth, S. Ehlert          DFT functionals, gCP, sTDA/sTD-DF
   Ed Valeev, F. Pavosevic, A. Kumar             : LibInt (2-el integral package), F12 methods
   Garnet Chan, S. Sharma, J. Yang, R. Olivares  : DMRG
   Ulf Ekstrom                                   : XCFun DFT Library
   Mihaly Kallay                                 : mrcc  (arbitrary order and MRCC methods)
   Jiri Pittner, Ondrej Demel                    : Mk-CCSD
   Frank Weinhold                                : gennbo (NPA and NBO analysis)
   Christopher J. Cramer and Donald G. Truhlar   : smd solvation model
   Lars Goerigk                                  : TD-DFT with DH, B97 family of functionals
   V. Asgeirsson, H. Jonsson                     : NEB implementation
   FAccTs GmbH                                   : IRC, NEB, NEB-TS, DLPNO-Multilevel, CI-OPT
                                                   MM, QMMM, 2- and 3-layer-ONIOM, Crystal-QMMM,
                                                   LR-CPCM, SF, NACMEs, symmetry and pop. for TD-DFT,
                                                   nearIR, NL-DFT gradient (VV10), updates on ESD,
                                                   ML-optimized integration grids
   S Lehtola, MJT Oliveira, MAL Marques          : LibXC Library
   Liviu Ungur et al                             : ANISO software


 Your calculation uses the libint2 library for the computation of 2-el integrals
 For citations please refer to: http://libint.valeyev.net

 Your ORCA version has been built with support for libXC version: 5.1.0
 For citations please refer to: https://tddft.org/programs/libxc/

 This ORCA versions uses:
   CBLAS   interface :  Fast vector & matrix operations
   LAPACKE interface :  Fast linear algebra routines
   SCALAPACK package :  Parallel linear algebra routines
   Shared memory     :  Shared parallel matrices
   BLAS/LAPACK       :  OpenBLAS 0.3.15  USE64BITINT DYNAMIC_ARCH NO_AFFINITY Zen SINGLE_THREADED
        Core in use  :  Zen
   Copyright (c) 2011-2014, The OpenBLAS Project


================================================================================

----- Orbital basis set information -----
Your calculation utilizes the basis: 6-31G(d)
   H-He, Li-Ne : W. J. Hehre, R. Ditchfield and J.A. Pople, J. Chem. Phys. 56, 2257 (1972).
                 Note: He and Ne are unpublished basis sets taken from the Gaussian program.
                 Note: Li and B from J. D. Dill and J. A. Pople, J. Chem. Phys. 62, 2921 (1975).
   Na - Ar     : M. M. Francl, W. J. Pietro, W. J. Hehre, J. S. Binkley, M. S. Gordon, 
                 D. J. DeFrees and J. A. Pople, J. Chem. Phys. 77, 3654 (1982).
   K - Zn      : V. A. Rassolov, J. A. Pople, M. A. Ratner, and T. L. Windus, J. Chem. Phys. 109, 1223 (1998).

----- AuxJ basis set information -----
Your calculation utilizes the auxiliary basis: def2/J
   F. Weigend, Phys. Chem. Chem. Phys. 8, 1057 (2006).

================================================================================
                                        WARNINGS
                       Please study these warnings very carefully!
================================================================================


INFO   : the flag for use of the SHARK integral package has been found!

================================================================================
                                       INPUT FILE
================================================================================
NAME = betulin_eth_freq.inp
|  1> # avogadro generated ORCA file
|  2> # C34H62O4 | Frequencies | B3LYP/6-31G(d)
|  3> # 
|  4> ! Freq B3LYP 6-31G(d) CPCM(Ethanol)
|  5> 
|  6> %maxcore 1700
|  7> 
|  8> %pal
|  9>    nprocs 16
| 10> end
| 11> 
| 12> * xyz 0 1
| 13>    O     -5.873110    1.244392    1.178030
| 14>    O      4.897475   -2.926269    0.829112
| 15>    C     -0.423383   -0.955663   -0.062868
| 16>    C      0.974391   -0.781771   -0.845666
| 17>    C     -1.118328    0.454555   -0.009563
| 18>    C      1.871645    0.222558   -0.024178
| 19>    C     -2.638550    0.518838    0.418128
| 20>    C      3.299566    0.288778   -0.601114
| 21>    C      3.999659   -1.102896   -0.610944
| 22>    C     -3.412713   -0.525225   -0.449984
| 23>    C      1.706991   -2.149318   -1.007357
| 24>    C     -1.351739   -1.954160   -0.799400
| 25>    C     -0.227826    1.469613    0.733070
| 26>    C      1.177846    1.587134    0.121450
| 27>    C      3.171019   -2.051188   -1.488364
| 28>    C     -2.805094   -1.928617   -0.307630
| 29>    C      4.360193    1.238537    0.024449
| 30>    C     -4.985278   -0.506940   -0.354080
| 31>    C     -3.172092    1.950600    0.049076
| 32>    C      5.390983   -0.726452   -1.153109
| 33>    C     -0.179391   -1.535929    1.356440
| 34>    C      0.756264   -0.246926   -2.288635
| 35>    C      5.725845    0.618137   -0.458708
| 36>    C     -2.844296    0.312827    1.936661
| 37>    C     -5.519569    0.953512   -0.201165
| 38>    C     -4.508929    1.969921   -0.717348
| 39>    C      4.164059   -1.681833    0.815103
| 40>    C      4.280786    2.714404   -0.319496
| 41>    C     -5.537091   -1.021056   -1.706877
| 42>    C     -5.550217   -1.423996    0.749566
| 43>    C      4.104520    3.103802   -1.767774
| 44>    C      4.425791    3.648359    0.631991
| 45>    H     -1.159322    0.789414   -1.050651
| 46>    H      1.961727   -0.180300    0.989278
| 47>    H      3.222793    0.572924   -1.657019
| 48>    H     -3.199412   -0.222560   -1.485192
| 49>    H      1.150884   -2.769147   -1.718556
| 50>    H      1.697532   -2.698351   -0.063738
| 51>    H     -0.951737   -2.969227   -0.697376
| 52>    H     -1.368295   -1.734105   -1.870781
| 53>    H     -0.132066    1.193602    1.788071
| 54>    H     -0.697987    2.458093    0.724475
| 55>    H      1.115451    2.086677   -0.852417
| 56>    H      1.787466    2.237031    0.755447
| 57>    H      3.607138   -3.057941   -1.509318
| 58>    H      3.213739   -1.690191   -2.521856
| 59>    H     -3.378290   -2.648580   -0.900880
| 60>    H     -2.872607   -2.275449    0.727610
| 61>    H      4.307733    1.162707    1.115562
| 62>    H     -2.438893    2.480176   -0.566509
| 63>    H     -3.276314    2.543779    0.962889
| 64>    H      5.327763   -0.590204   -2.238468
| 65>    H      6.144094   -1.495902   -0.963329
| 66>    H     -1.116141   -1.851547    1.814173
| 67>    H      0.455126   -2.423499    1.317317
| 68>    H      0.286970   -0.830712    2.044516
| 69>    H      1.702940   -0.189308   -2.828433
| 70>    H      0.113751   -0.919000   -2.861953
| 71>    H      0.312887    0.747448   -2.329046
| 72>    H      6.383635    0.470138    0.402200
| 73>    H      6.251199    1.294384   -1.137633
| 74>    H     -3.863890    0.573202    2.221108
| 75>    H     -2.660539   -0.711477    2.262087
| 76>    H     -2.171682    0.963401    2.503395
| 77>    H     -6.444856    1.036335   -0.784638
| 78>    H     -4.945803    2.975852   -0.673428
| 79>    H     -4.341702    1.763455   -1.779975
| 80>    H      3.201620   -1.834840    1.307255
| 81>    H      4.749447   -1.007383    1.441625
| 82>    H     -6.628945   -1.100087   -1.671495
| 83>    H     -5.273959   -0.346614   -2.529059
| 84>    H     -5.137985   -2.010499   -1.945843
| 85>    H     -6.641027   -1.339081    0.790556
| 86>    H     -5.312756   -2.468814    0.531556
| 87>    H     -5.158979   -1.187547    1.739078
| 88>    H     -5.859488    2.204033    1.288713
| 89>    H      4.319453   -3.634996    0.521177
| 90>    H      3.106011    2.835476   -2.130092
| 91>    H      4.235251    4.180544   -1.902723
| 92>    H      4.822179    2.586280   -2.414753
| 93>    H      4.425912    4.708593    0.393958
| 94>    H      4.543460    3.378475    1.678092
| 95>    H      8.519644   -5.905628    4.057586
| 96>    C      7.891807   -5.023755    4.220737
| 97>    H      7.227656   -5.227178    5.067133
| 98>    H      8.541460   -4.183012    4.485174
| 99>    C      7.088750   -4.713597    2.969318
|100>    H      7.764185   -4.523552    2.123323
|101>    H      6.457416   -5.573592    2.703842
|102>    O      6.272372   -3.562590    3.214115
|103>    H      5.777602   -3.355147    2.397750
|104>    H    -11.113639    2.405285    3.144388
|105>    C    -10.632038    1.523285    2.710566
|106>    H    -10.692890    0.706225    3.436617
|107>    H    -11.190648    1.232448    1.814984
|108>    C     -9.184559    1.830523    2.366618
|109>    H     -9.135833    2.660144    1.647002
|110>    H     -8.638924    2.140256    3.269046
|111>    O     -8.581428    0.658153    1.806291
|112>    H     -7.646247    0.855272    1.600819
|113> *
|114> 
|115> 
|116> 
|117>                          ****END OF INPUT****
================================================================================

                       ****************************
                       * Single Point Calculation *
                       ****************************

---------------------------------
CARTESIAN COORDINATES (ANGSTROEM)
---------------------------------
  O     -5.873110    1.244392    1.178030
  O      4.897475   -2.926269    0.829112
  C     -0.423383   -0.955663   -0.062868
  C      0.974391   -0.781771   -0.845666
  C     -1.118328    0.454555   -0.009563
  C      1.871645    0.222558   -0.024178
  C     -2.638550    0.518838    0.418128
  C      3.299566    0.288778   -0.601114
  C      3.999659   -1.102896   -0.610944
  C     -3.412713   -0.525225   -0.449984
  C      1.706991   -2.149318   -1.007357
  C     -1.351739   -1.954160   -0.799400
  C     -0.227826    1.469613    0.733070
  C      1.177846    1.587134    0.121450
  C      3.171019   -2.051188   -1.488364
  C     -2.805094   -1.928617   -0.307630
  C      4.360193    1.238537    0.024449
  C     -4.985278   -0.506940   -0.354080
  C     -3.172092    1.950600    0.049076
  C      5.390983   -0.726452   -1.153109
  C     -0.179391   -1.535929    1.356440
  C      0.756264   -0.246926   -2.288635
  C      5.725845    0.618137   -0.458708
  C     -2.844296    0.312827    1.936661
  C     -5.519569    0.953512   -0.201165
  C     -4.508929    1.969921   -0.717348
  C      4.164059   -1.681833    0.815103
  C      4.280786    2.714404   -0.319496
  C     -5.537091   -1.021056   -1.706877
  C     -5.550217   -1.423996    0.749566
  C      4.104520    3.103802   -1.767774
  C      4.425791    3.648359    0.631991
  H     -1.159322    0.789414   -1.050651
  H      1.961727   -0.180300    0.989278
  H      3.222793    0.572924   -1.657019
  H     -3.199412   -0.222560   -1.485192
  H      1.150884   -2.769147   -1.718556
  H      1.697532   -2.698351   -0.063738
  H     -0.951737   -2.969227   -0.697376
  H     -1.368295   -1.734105   -1.870781
  H     -0.132066    1.193602    1.788071
  H     -0.697987    2.458093    0.724475
  H      1.115451    2.086677   -0.852417
  H      1.787466    2.237031    0.755447
  H      3.607138   -3.057941   -1.509318
  H      3.213739   -1.690191   -2.521856
  H     -3.378290   -2.648580   -0.900880
  H     -2.872607   -2.275449    0.727610
  H      4.307733    1.162707    1.115562
  H     -2.438893    2.480176   -0.566509
  H     -3.276314    2.543779    0.962889
  H      5.327763   -0.590204   -2.238468
  H      6.144094   -1.495902   -0.963329
  H     -1.116141   -1.851547    1.814173
  H      0.455126   -2.423499    1.317317
  H      0.286970   -0.830712    2.044516
  H      1.702940   -0.189308   -2.828433
  H      0.113751   -0.919000   -2.861953
  H      0.312887    0.747448   -2.329046
  H      6.383635    0.470138    0.402200
  H      6.251199    1.294384   -1.137633
  H     -3.863890    0.573202    2.221108
  H     -2.660539   -0.711477    2.262087
  H     -2.171682    0.963401    2.503395
  H     -6.444856    1.036335   -0.784638
  H     -4.945803    2.975852   -0.673428
  H     -4.341702    1.763455   -1.779975
  H      3.201620   -1.834840    1.307255
  H      4.749447   -1.007383    1.441625
  H     -6.628945   -1.100087   -1.671495
  H     -5.273959   -0.346614   -2.529059
  H     -5.137985   -2.010499   -1.945843
  H     -6.641027   -1.339081    0.790556
  H     -5.312756   -2.468814    0.531556
  H     -5.158979   -1.187547    1.739078
  H     -5.859488    2.204033    1.288713
  H      4.319453   -3.634996    0.521177
  H      3.106011    2.835476   -2.130092
  H      4.235251    4.180544   -1.902723
  H      4.822179    2.586280   -2.414753
  H      4.425912    4.708593    0.393958
  H      4.543460    3.378475    1.678092
  H      8.519644   -5.905628    4.057586
  C      7.891807   -5.023755    4.220737
  H      7.227656   -5.227178    5.067133
  H      8.541460   -4.183012    4.485174
  C      7.088750   -4.713597    2.969318
  H      7.764185   -4.523552    2.123323
  H      6.457416   -5.573592    2.703842
  O      6.272372   -3.562590    3.214115
  H      5.777602   -3.355147    2.397750
  H    -11.113639    2.405285    3.144388
  C    -10.632038    1.523285    2.710566
  H    -10.692890    0.706225    3.436617
  H    -11.190648    1.232448    1.814984
  C     -9.184559    1.830523    2.366618
  H     -9.135833    2.660144    1.647002
  H     -8.638924    2.140256    3.269046
  O     -8.581428    0.658153    1.806291
  H     -7.646247    0.855272    1.600819

----------------------------
CARTESIAN COORDINATES (A.U.)
----------------------------
  NO LB      ZA    FRAG     MASS         X           Y           Z
   0 O     8.0000    0    15.999  -11.098569    2.351560    2.226154
   1 O     8.0000    0    15.999    9.254886   -5.529847    1.566795
   2 C     6.0000    0    12.011   -0.800078   -1.805941   -0.118803
   3 C     6.0000    0    12.011    1.841332   -1.477333   -1.598077
   4 C     6.0000    0    12.011   -2.113334    0.858984   -0.018071
   5 C     6.0000    0    12.011    3.536896    0.420574   -0.045690
   6 C     6.0000    0    12.011   -4.986137    0.980462    0.790147
   7 C     6.0000    0    12.011    6.235276    0.545711   -1.135941
   8 C     6.0000    0    12.011    7.558260   -2.084171   -1.154517
   9 C     6.0000    0    12.011   -6.449093   -0.992531   -0.850347
  10 C     6.0000    0    12.011    3.225746   -4.061622   -1.903629
  11 C     6.0000    0    12.011   -2.554417   -3.692827   -1.510647
  12 C     6.0000    0    12.011   -0.430529    2.777166    1.385302
  13 C     6.0000    0    12.011    2.225806    2.999249    0.229507
  14 C     6.0000    0    12.011    5.992357   -3.876184   -2.812600
  15 C     6.0000    0    12.011   -5.300859   -3.644558   -0.581336
  16 C     6.0000    0    12.011    8.239571    2.340496    0.046202
  17 C     6.0000    0    12.011   -9.420810   -0.957978   -0.669114
  18 C     6.0000    0    12.011   -5.994385    3.686100    0.092740
  19 C     6.0000    0    12.011   10.187481   -1.372795   -2.179060
  20 C     6.0000    0    12.011   -0.339000   -2.902485    2.563300
  21 C     6.0000    0    12.011    1.429132   -0.466623   -4.324893
  22 C     6.0000    0    12.011   10.820279    1.168110   -0.866832
  23 C     6.0000    0    12.011   -5.374940    0.591157    3.659759
  24 C     6.0000    0    12.011  -10.430474    1.801877   -0.380147
  25 C     6.0000    0    12.011   -8.520641    3.722611   -1.355591
  26 C     6.0000    0    12.011    7.868931   -3.178204    1.540321
  27 C     6.0000    0    12.011    8.089513    5.129480   -0.603760
  28 C     6.0000    0    12.011  -10.463586   -1.929516   -3.225530
  29 C     6.0000    0    12.011  -10.488390   -2.690962    1.416474
  30 C     6.0000    0    12.011    7.756419    5.865336   -3.340609
  31 C     6.0000    0    12.011    8.363533    6.894399    1.194290
  32 H     1.0000    0     1.008   -2.190801    1.491776   -1.985443
  33 H     1.0000    0     1.008    3.707127   -0.340718    1.869464
  34 H     1.0000    0     1.008    6.090196    1.082669   -3.131312
  35 H     1.0000    0     1.008   -6.046012   -0.420577   -2.806606
  36 H     1.0000    0     1.008    2.174856   -5.232929   -3.247600
  37 H     1.0000    0     1.008    3.207871   -5.099144   -0.120447
  38 H     1.0000    0     1.008   -1.798522   -5.611026   -1.317850
  39 H     1.0000    0     1.008   -2.585703   -3.276984   -3.535264
  40 H     1.0000    0     1.008   -0.249569    2.255581    3.378964
  41 H     1.0000    0     1.008   -1.319004    4.645123    1.369059
  42 H     1.0000    0     1.008    2.107897    3.943248   -1.610835
  43 H     1.0000    0     1.008    3.377821    4.227376    1.427588
  44 H     1.0000    0     1.008    6.816503   -5.778671   -2.852198
  45 H     1.0000    0     1.008    6.073087   -3.193998   -4.765617
  46 H     1.0000    0     1.008   -6.384043   -5.005091   -1.702416
  47 H     1.0000    0     1.008   -5.428441   -4.299975    1.374984
  48 H     1.0000    0     1.008    8.140436    2.197198    2.108107
  49 H     1.0000    0     1.008   -4.608840    4.686853   -1.070547
  50 H     1.0000    0     1.008   -6.191336    4.807046    1.819597
  51 H     1.0000    0     1.008   10.068013   -1.115324   -4.230091
  52 H     1.0000    0     1.008   11.610655   -2.826845   -1.820428
  53 H     1.0000    0     1.008   -2.109201   -3.498917    3.428290
  54 H     1.0000    0     1.008    0.860063   -4.579749    2.489368
  55 H     1.0000    0     1.008    0.542295   -1.569818    3.863575
  56 H     1.0000    0     1.008    3.218090   -0.357740   -5.344964
  57 H     1.0000    0     1.008    0.214958   -1.736658   -5.408307
  58 H     1.0000    0     1.008    0.591271    1.412472   -4.401259
  59 H     1.0000    0     1.008   12.063322    0.888432    0.760048
  60 H     1.0000    0     1.008   11.813054    2.446031   -2.149815
  61 H     1.0000    0     1.008   -7.301694    1.083195    4.197286
  62 H     1.0000    0     1.008   -5.027690   -1.344497    4.274725
  63 H     1.0000    0     1.008   -4.103884    1.820564    4.730731
  64 H     1.0000    0     1.008  -12.179013    1.958389   -1.482751
  65 H     1.0000    0     1.008   -9.346213    5.623545   -1.272594
  66 H     1.0000    0     1.008   -8.204628    3.332447   -3.363665
  67 H     1.0000    0     1.008    6.050185   -3.467345    2.470354
  68 H     1.0000    0     1.008    8.975154   -1.903678    2.724276
  69 H     1.0000    0     1.008  -12.526891   -2.078863   -3.158668
  70 H     1.0000    0     1.008   -9.966338   -0.655006   -4.779229
  71 H     1.0000    0     1.008   -9.709385   -3.799293   -3.677110
  72 H     1.0000    0     1.008  -12.549722   -2.530496    1.493934
  73 H     1.0000    0     1.008  -10.039654   -4.665382    1.004495
  74 H     1.0000    0     1.008   -9.749057   -2.244139    3.286381
  75 H     1.0000    0     1.008  -11.072828    4.165019    2.435315
  76 H     1.0000    0     1.008    8.162583   -6.869147    0.984882
  77 H     1.0000    0     1.008    5.869510    5.358273   -4.025291
  78 H     1.0000    0     1.008    8.003464    7.900083   -3.595625
  79 H     1.0000    0     1.008    9.112598    4.887361   -4.563222
  80 H     1.0000    0     1.008    8.363762    8.897951    0.744473
  81 H     1.0000    0     1.008    8.585895    6.384393    3.171134
  82 H     1.0000    0     1.008   16.099794  -11.160020    7.667726
  83 C     6.0000    0    12.011   14.913354   -9.493521    7.976037
  84 H     1.0000    0     1.008   13.658290   -9.877935    9.575494
  85 H     1.0000    0     1.008   16.141020   -7.904747    8.475751
  86 C     6.0000    0    12.011   13.395796   -8.907407    5.611198
  87 H     1.0000    0     1.008   14.672183   -8.548274    4.012499
  88 H     1.0000    0     1.008   12.202748  -10.532562    5.109521
  89 O     8.0000    0    15.999   11.853065   -6.732319    6.073797
  90 H     1.0000    0     1.008   10.918085   -6.340309    4.531091
  91 H     1.0000    0     1.008  -21.001734    4.545330    5.942032
  92 C     6.0000    0    12.011  -20.091640    2.878591    5.122227
  93 H     1.0000    0     1.008  -20.206634    1.334572    6.494265
  94 H     1.0000    0     1.008  -21.147260    2.328989    3.429823
  95 C     6.0000    0    12.011  -17.356301    3.459187    4.472260
  96 H     1.0000    0     1.008  -17.264222    5.026944    3.112383
  97 H     1.0000    0     1.008  -16.325200    4.044498    6.177602
  98 O     8.0000    0    15.999  -16.216549    1.243729    3.413395
  99 H     1.0000    0     1.008  -14.449313    1.616230    3.025109

--------------------------------
INTERNAL COORDINATES (ANGSTROEM)
--------------------------------
 O      0   0   0     0.000000000000     0.00000000     0.00000000
 O      1   0   0    11.555157211820     0.00000000     0.00000000
 C      2   1   0     5.743731033379    10.69756452     0.00000000
 C      3   2   1     1.611453782007    46.28454803   141.60857690
 C      3   2   4     1.573055874270   135.36240581   291.82790836
 C      4   3   2     1.577524647954   108.00448704   284.81250331
 C      5   3   2     1.580546369093   118.06998036   211.58655733
 C      6   4   3     1.541492334959   111.05831211   171.99804450
 C      8   6   4     1.557877838544   112.35015445   301.66172469
 C      7   5   3     1.563014505077   107.39380248   309.84573208
 C      4   3   2     1.559817789580   111.29305659    45.87885199
 C      3   2   9     1.549619472248   114.06187577   112.33723055
 C      5   3   2     1.541051695452   110.58153351   344.64898826
 C     13   5   3     1.537466741567   112.76559801    55.82535367
 C      9   8   6     1.534851075272   108.23496384    60.56585746
 C     12   3   2     1.534513256304   113.85075211   143.17093498
 C      8   6   4     1.555088697849   120.49515941   178.61452862
 C     10   7   5     1.575592776597   116.92286037   188.46724679
 C      7   5   3     1.571880679031   107.45690044   193.80829420
 C      9   8   6     1.539946572235   100.94497831   182.76937391
 C      3   2   9     1.552635155368    65.43279304   210.52714190
 C      4   3   2     1.554283789118   111.49278622   163.68532315
 C     20   9   8     1.549917703224   104.44990649    40.02192232
 C      7   5   3     1.546193526285   112.85029024    75.02536159
 C      1   2   9     1.453196910644    70.87250136    48.83275719
 C     25   1   2     1.523458353343   110.45159391   287.98097849
 C      2   1  25     1.444547070619    38.38250335    92.92118595
 C     17   8   6     1.517493669299   117.84779452   282.03904180
 C     18  10   7     1.548829419799   107.37210045   151.54037347
 C     18  10   7     1.542135621200   113.72151117   270.06782427
 C     28  17   8     1.510036314280   118.31321224   312.86043939
 C     28  17   8     1.341128593096   120.71919569   135.89689739
 H      5   3   2     1.094383516717   104.98806975    98.76195410
 H      6   4   3     1.094304527462   107.14052302    55.91563550
 H      8   6   4     1.096160760048   107.86552122    56.77653688
 H     10   7   5     1.099435774427   104.06249999   302.90225307
 H     11   4   3     1.095101366217   108.96856269    69.80980465
 H     11   4   3     1.091761661230   110.31830562   314.06997447
 H     12   3   2     1.095797203441   109.50809638    20.42363678
 H     12   3   2     1.093871816678   110.17991044   263.67017448
 H     13   5   3     1.094705056041   110.41977981   293.84445189
 H     13   5   3     1.094631422144   110.04895256   177.37266798
 H     14  13   5     1.096290690722   109.64436366    70.42728940
 H     14  13   5     1.093597206936   108.93286141   186.03350304
 H     15   9   8     1.097356120540   111.29559999   181.48260083
 H     15   9   8     1.095559010950   108.33919190    65.81584218
 H     16  12   3     1.094918233607   108.13360386   178.82821098
 H     16  12   3     1.093879471877   110.88358043   294.37631754
 H     17   8   6     1.095002200577   109.01827219    44.03420665
 H     19   7   5     1.094064168869   110.21401108    10.28494157
 H     19   7   5     1.094430331403   109.26700668   254.50403289
 H     20   9   8     1.095702717339   109.08747371   281.99631611
 H     20   9   8     1.093273035074   112.90563023   162.66000372
 H     21   3   2     1.089327675088   110.93212700   203.24521611
 H     21   3   2     1.091752232568   111.24818791   321.25191333
 H     21   3   2     1.090078979334   113.73224616    82.75027911
 H     22   4   3     1.091282348297   110.83302292   183.35642423
 H     22   4   3     1.092336919530   110.98324454   301.41593526
 H     22   4   3     1.089493398294   113.92964110    63.07663844
 H     23  20   9     1.093505360099   111.42459958    99.06790192
 H     23  20   9     1.092815623035   111.24495297   217.72170020
 H     24   7   5     1.090081263608   110.42065276   167.91549881
 H     24   7   5     1.090351961956   113.31970567   288.83938250
 H     24   7   5     1.094003450282   110.34823357    49.42283621
 H     25   1   2     1.097021614840   106.52738868   169.49957583
 H     26  25   1     1.097581448020   109.50287987   299.50040876
 H     26  25   1     1.095339773684   107.71157125   184.89243415
 H     27   2   1     1.091747938800   108.81254952    25.16646746
 H     27   2   1     1.090913254814   104.74921061   139.89305377
 H     29  18  10     1.095282129043   110.54226806   175.81201851
 H     29  18  10     1.095487883051   111.44385998   295.85765551
 H     29  18  10     1.093337916036   111.17663900    56.12792839
 H     30  18  10     1.094877707064   110.22129977   177.88457178
 H     30  18  10     1.093417001763   110.24196425   296.19468496
 H     30  18  10     1.090004266225   112.90431250    57.18388134
 H      1   2  27     0.966098925708   110.41632876   350.54174630
 H      2   1  76     0.965001221366    73.52492053   193.61345656
 H     31  28  17     1.095579024298   111.12557809    69.58182563
 H     31  28  17     1.093011967696   111.00741856   189.82954614
 H     31  28  17     1.096104596836   111.58809902   310.73357656
 H     32  28  17     1.086625905492   121.60626733   176.59981910
 H     32  28  17     1.086743147767   121.44619199   356.27624147
 H      2   1  76     5.693832864084   139.88070647   107.24911677
 C     83   2   1     1.094759122136    45.42535353   309.68356579
 H     84  83   2     1.094926324711   108.26471230   123.12044810
 H     84  83   2     1.094908552997   108.31636178   240.48370410
 C     84  83   2     1.518929900876   110.17632925     1.88485181
 H     87  84  83     1.099107402065   110.15471242   300.46022052
 H     87  84  83     1.099386886477   110.04922734    58.93211997
 O     87  84  83     1.432206592689   108.94431368   179.65263069
 H     90  87  84     0.976873463850   108.45284628   178.48650828
 H     76   1   2     5.575852831983    93.47966270   199.78613849
 C     92  76   1     1.094561579302    54.85846834   350.35352654
 H     93  92  76     1.094732873401   108.30611321   123.36386994
 H     93  92  76     1.094850862626   108.28647765   240.73491389
 C     93  92  76     1.519174404336   110.24272178     2.06575821
 H     96  93  92     1.099314520132   110.06355919   300.54321113
 H     96  93  92     1.099103443584   110.12740023    59.04433964
 O     96  93  92     1.432544856886   108.91695958   179.80812398
 H     99  96  93     0.977567463506   108.66036846   180.97214687

---------------------------
INTERNAL COORDINATES (A.U.)
---------------------------
 O      0   0   0     0.000000000000     0.00000000     0.00000000
 O      1   0   0    21.836082564744     0.00000000     0.00000000
 C      2   1   0    10.854078639991    10.69756452     0.00000000
 C      3   2   1     3.045206325464    46.28454803   141.60857690
 C      3   2   4     2.972644795726   135.36240581   291.82790836
 C      4   3   2     2.981089554143   108.00448704   284.81250331
 C      5   3   2     2.986799779550   118.06998036   211.58655733
 C      6   4   3     2.912998350611   111.05831211   171.99804450
 C      8   6   4     2.943962464952   112.35015445   301.66172469
 C      7   5   3     2.953669357943   107.39380248   309.84573208
 C      4   3   2     2.947628441124   111.29305659    45.87885199
 C      3   2   9     2.928356414340   114.06187577   112.33723055
 C      5   3   2     2.912165662620   110.58153351   344.64898826
 C     13   5   3     2.905391081574   112.76559801    55.82535367
 C      9   8   6     2.900448188619   108.23496384    60.56585746
 C     12   3   2     2.899809803287   113.85075211   143.17093498
 C      8   6   4     2.938691752892   120.49515941   178.61452862
 C     10   7   5     2.977438846354   116.92286037   188.46724679
 C      7   5   3     2.970423998571   107.45690044   193.80829420
 C      9   8   6     2.910077282394   100.94497831   182.76937391
 C      3   2   9     2.934055229543    65.43279304   210.52714190
 C      4   3   2     2.937170695826   111.49278622   163.68532315
 C     20   9   8     2.928919989209   104.44990649    40.02192232
 C      7   5   3     2.921882314721   112.85029024    75.02536159
 C      1   2   9     2.746144179778    70.87250136    48.83275719
 C     25   1   2     2.878919064253   110.45159391   287.98097849
 C      2   1  25     2.729798351028    38.38250335    92.92118595
 C     17   8   6     2.867647444935   117.84779452   282.03904180
 C     18  10   7     2.926863431580   107.37210045   151.54037347
 C     18  10   7     2.914213985432   113.72151117   270.06782427
 C     28  17   8     2.853555086265   118.31321224   312.86043939
 C     28  17   8     2.534365751322   120.71919569   135.89689739
 H      5   3   2     2.068085132072   104.98806975    98.76195410
 H      6   4   3     2.067935864013   107.14052302    55.91563550
 H      8   6   4     2.071443635243   107.86552122    56.77653688
 H     10   7   5     2.077632515503   104.06249999   302.90225307
 H     11   4   3     2.069441671034   108.96856269    69.80980465
 H     11   4   3     2.063130543239   110.31830562   314.06997447
 H     12   3   2     2.070756612820   109.50809638    20.42363678
 H     12   3   2     2.067118159136   110.17991044   263.67017448
 H     13   5   3     2.068692753337   110.41977981   293.84445189
 H     13   5   3     2.068553605438   110.04895256   177.37266798
 H     14  13   5     2.071689168631   109.64436366    70.42728940
 H     14  13   5     2.066599221930   108.93286141   186.03350304
 H     15   9   8     2.073702539202   111.29559999   181.48260083
 H     15   9   8     2.070306494244   108.33919190    65.81584218
 H     16  12   3     2.069095600554   108.13360386   178.82821098
 H     16  12   3     2.067132625365   110.88358043   294.37631754
 H     17   8   6     2.069254275132   109.01827219    44.03420665
 H     19   7   5     2.067481652098   110.21401108    10.28494157
 H     19   7   5     2.068173599008   109.26700668   254.50403289
 H     20   9   8     2.070578059965   109.08747371   281.99631611
 H     20   9   8     2.065986625892   112.90563023   162.66000372
 H     21   3   2     2.058530976018   110.93212700   203.24521611
 H     21   3   2     2.063112725651   111.24818791   321.25191333
 H     21   3   2     2.059950735286   113.73224616    82.75027911
 H     22   4   3     2.062224773063   110.83302292   183.35642423
 H     22   4   3     2.064217623883   110.98324454   301.41593526
 H     22   4   3     2.058844147491   113.92964110    63.07663844
 H     23  20   9     2.066425656562   111.42459958    99.06790192
 H     23  20   9     2.065122242407   111.24495297   217.72170020
 H     24   7   5     2.059955051939   110.42065276   167.91549881
 H     24   7   5     2.060466597680   113.31970567   288.83938250
 H     24   7   5     2.067366910597   110.34823357    49.42283621
 H     25   1   2     2.073070415040   106.52738868   169.49957583
 H     26  25   1     2.074128346430   109.50287987   299.50040876
 H     26  25   1     2.069892195854   107.71157125   184.89243415
 H     27   2   1     2.063104611605   108.81254952    25.16646746
 H     27   2   1     2.061527287462   104.74921061   139.89305377
 H     29  18  10     2.069783263269   110.54226806   175.81201851
 H     29  18  10     2.070172081996   111.44385998   295.85765551
 H     29  18  10     2.066109233139   111.17663900    56.12792839
 H     30  18  10     2.069019016486   110.22129977   177.88457178
 H     30  18  10     2.066258683506   110.24196425   296.19468496
 H     30  18  10     2.059809547971   112.90431250    57.18388134
 H      1   2  27     1.825662387864   110.41632876   350.54174630
 H      2   1  76     1.823588027281    73.52492053   193.61345656
 H     31  28  17     2.070344313991   111.12557809    69.58182563
 H     31  28  17     2.065493280043   111.00741856   189.82954614
 H     31  28  17     2.071337502153   111.58809902   310.73357656
 H     32  28  17     2.053425371404   121.60626733   176.59981910
 H     32  28  17     2.053646927195   121.44619199   356.27624147
 H      2   1  76    10.759784765438   139.88070647   107.24911677
 C     83   2   1     2.068794923448    45.42535353   309.68356579
 H     84  83   2     2.069110890525   108.26471230   123.12044810
 H     84  83   2     2.069077306853   108.31636178   240.48370410
 C     84  83   2     2.870361529279   110.17632925     1.88485181
 H     87  84  83     2.077011981669   110.15471242   300.46022052
 H     87  84  83     2.077540130665   110.04922734    58.93211997
 O     87  84  83     2.706478227379   108.94431368   179.65263069
 H     90  87  84     1.846023314171   108.45284628   178.48650828
 H     76   1   2    10.536834815497    93.47966270   199.78613849
 C     92  76   1     2.068421621594    54.85846834   350.35352654
 H     93  92  76     2.068745320529   108.30611321   123.36386994
 H     93  92  76     2.068968287851   108.28647765   240.73491389
 C     93  92  76     2.870823573858   110.24272178     2.06575821
 H     96  93  92     2.077403378092   110.06355919   300.54321113
 H     96  93  92     2.077004501223   110.12740023    59.04433964
 O     96  93  92     2.707117454072   108.91695958   179.80812398
 H     99  96  93     1.847334783459   108.66036846   180.97214687

---------------------
BASIS SET INFORMATION
---------------------
There are 3 groups of distinct atoms

 Group   1 Type O   : 10s4p1d contracted to 3s2p1d pattern {631/31/1}
 Group   2 Type C   : 10s4p1d contracted to 3s2p1d pattern {631/31/1}
 Group   3 Type H   : 4s contracted to 2s pattern {31}

Atom   0O    basis set group =>   1
Atom   1O    basis set group =>   1
Atom   2C    basis set group =>   2
Atom   3C    basis set group =>   2
Atom   4C    basis set group =>   2
Atom   5C    basis set group =>   2
Atom   6C    basis set group =>   2
Atom   7C    basis set group =>   2
Atom   8C    basis set group =>   2
Atom   9C    basis set group =>   2
Atom  10C    basis set group =>   2
Atom  11C    basis set group =>   2
Atom  12C    basis set group =>   2
Atom  13C    basis set group =>   2
Atom  14C    basis set group =>   2
Atom  15C    basis set group =>   2
Atom  16C    basis set group =>   2
Atom  17C    basis set group =>   2
Atom  18C    basis set group =>   2
Atom  19C    basis set group =>   2
Atom  20C    basis set group =>   2
Atom  21C    basis set group =>   2
Atom  22C    basis set group =>   2
Atom  23C    basis set group =>   2
Atom  24C    basis set group =>   2
Atom  25C    basis set group =>   2
Atom  26C    basis set group =>   2
Atom  27C    basis set group =>   2
Atom  28C    basis set group =>   2
Atom  29C    basis set group =>   2
Atom  30C    basis set group =>   2
Atom  31C    basis set group =>   2
Atom  32H    basis set group =>   3
Atom  33H    basis set group =>   3
Atom  34H    basis set group =>   3
Atom  35H    basis set group =>   3
Atom  36H    basis set group =>   3
Atom  37H    basis set group =>   3
Atom  38H    basis set group =>   3
Atom  39H    basis set group =>   3
Atom  40H    basis set group =>   3
Atom  41H    basis set group =>   3
Atom  42H    basis set group =>   3
Atom  43H    basis set group =>   3
Atom  44H    basis set group =>   3
Atom  45H    basis set group =>   3
Atom  46H    basis set group =>   3
Atom  47H    basis set group =>   3
Atom  48H    basis set group =>   3
Atom  49H    basis set group =>   3
Atom  50H    basis set group =>   3
Atom  51H    basis set group =>   3
Atom  52H    basis set group =>   3
Atom  53H    basis set group =>   3
Atom  54H    basis set group =>   3
Atom  55H    basis set group =>   3
Atom  56H    basis set group =>   3
Atom  57H    basis set group =>   3
Atom  58H    basis set group =>   3
Atom  59H    basis set group =>   3
Atom  60H    basis set group =>   3
Atom  61H    basis set group =>   3
Atom  62H    basis set group =>   3
Atom  63H    basis set group =>   3
Atom  64H    basis set group =>   3
Atom  65H    basis set group =>   3
Atom  66H    basis set group =>   3
Atom  67H    basis set group =>   3
Atom  68H    basis set group =>   3
Atom  69H    basis set group =>   3
Atom  70H    basis set group =>   3
Atom  71H    basis set group =>   3
Atom  72H    basis set group =>   3
Atom  73H    basis set group =>   3
Atom  74H    basis set group =>   3
Atom  75H    basis set group =>   3
Atom  76H    basis set group =>   3
Atom  77H    basis set group =>   3
Atom  78H    basis set group =>   3
Atom  79H    basis set group =>   3
Atom  80H    basis set group =>   3
Atom  81H    basis set group =>   3
Atom  82H    basis set group =>   3
Atom  83C    basis set group =>   2
Atom  84H    basis set group =>   3
Atom  85H    basis set group =>   3
Atom  86C    basis set group =>   2
Atom  87H    basis set group =>   3
Atom  88H    basis set group =>   3
Atom  89O    basis set group =>   1
Atom  90H    basis set group =>   3
Atom  91H    basis set group =>   3
Atom  92C    basis set group =>   2
Atom  93H    basis set group =>   3
Atom  94H    basis set group =>   3
Atom  95C    basis set group =>   2
Atom  96H    basis set group =>   3
Atom  97H    basis set group =>   3
Atom  98O    basis set group =>   1
Atom  99H    basis set group =>   3
---------------------------------
AUXILIARY/J BASIS SET INFORMATION
---------------------------------
There are 3 groups of distinct atoms

 Group   1 Type O   : 12s5p4d2f1g contracted to 6s4p3d1f1g pattern {711111/2111/211/2/1}
 Group   2 Type C   : 12s5p4d2f1g contracted to 6s4p3d1f1g pattern {711111/2111/211/2/1}
 Group   3 Type H   : 5s2p1d contracted to 3s1p1d pattern {311/2/1}

Atom   0O    basis set group =>   1
Atom   1O    basis set group =>   1
Atom   2C    basis set group =>   2
Atom   3C    basis set group =>   2
Atom   4C    basis set group =>   2
Atom   5C    basis set group =>   2
Atom   6C    basis set group =>   2
Atom   7C    basis set group =>   2
Atom   8C    basis set group =>   2
Atom   9C    basis set group =>   2
Atom  10C    basis set group =>   2
Atom  11C    basis set group =>   2
Atom  12C    basis set group =>   2
Atom  13C    basis set group =>   2
Atom  14C    basis set group =>   2
Atom  15C    basis set group =>   2
Atom  16C    basis set group =>   2
Atom  17C    basis set group =>   2
Atom  18C    basis set group =>   2
Atom  19C    basis set group =>   2
Atom  20C    basis set group =>   2
Atom  21C    basis set group =>   2
Atom  22C    basis set group =>   2
Atom  23C    basis set group =>   2
Atom  24C    basis set group =>   2
Atom  25C    basis set group =>   2
Atom  26C    basis set group =>   2
Atom  27C    basis set group =>   2
Atom  28C    basis set group =>   2
Atom  29C    basis set group =>   2
Atom  30C    basis set group =>   2
Atom  31C    basis set group =>   2
Atom  32H    basis set group =>   3
Atom  33H    basis set group =>   3
Atom  34H    basis set group =>   3
Atom  35H    basis set group =>   3
Atom  36H    basis set group =>   3
Atom  37H    basis set group =>   3
Atom  38H    basis set group =>   3
Atom  39H    basis set group =>   3
Atom  40H    basis set group =>   3
Atom  41H    basis set group =>   3
Atom  42H    basis set group =>   3
Atom  43H    basis set group =>   3
Atom  44H    basis set group =>   3
Atom  45H    basis set group =>   3
Atom  46H    basis set group =>   3
Atom  47H    basis set group =>   3
Atom  48H    basis set group =>   3
Atom  49H    basis set group =>   3
Atom  50H    basis set group =>   3
Atom  51H    basis set group =>   3
Atom  52H    basis set group =>   3
Atom  53H    basis set group =>   3
Atom  54H    basis set group =>   3
Atom  55H    basis set group =>   3
Atom  56H    basis set group =>   3
Atom  57H    basis set group =>   3
Atom  58H    basis set group =>   3
Atom  59H    basis set group =>   3
Atom  60H    basis set group =>   3
Atom  61H    basis set group =>   3
Atom  62H    basis set group =>   3
Atom  63H    basis set group =>   3
Atom  64H    basis set group =>   3
Atom  65H    basis set group =>   3
Atom  66H    basis set group =>   3
Atom  67H    basis set group =>   3
Atom  68H    basis set group =>   3
Atom  69H    basis set group =>   3
Atom  70H    basis set group =>   3
Atom  71H    basis set group =>   3
Atom  72H    basis set group =>   3
Atom  73H    basis set group =>   3
Atom  74H    basis set group =>   3
Atom  75H    basis set group =>   3
Atom  76H    basis set group =>   3
Atom  77H    basis set group =>   3
Atom  78H    basis set group =>   3
Atom  79H    basis set group =>   3
Atom  80H    basis set group =>   3
Atom  81H    basis set group =>   3
Atom  82H    basis set group =>   3
Atom  83C    basis set group =>   2
Atom  84H    basis set group =>   3
Atom  85H    basis set group =>   3
Atom  86C    basis set group =>   2
Atom  87H    basis set group =>   3
Atom  88H    basis set group =>   3
Atom  89O    basis set group =>   1
Atom  90H    basis set group =>   3
Atom  91H    basis set group =>   3
Atom  92C    basis set group =>   2
Atom  93H    basis set group =>   3
Atom  94H    basis set group =>   3
Atom  95C    basis set group =>   2
Atom  96H    basis set group =>   3
Atom  97H    basis set group =>   3
Atom  98O    basis set group =>   1
Atom  99H    basis set group =>   3


           ************************************************************
           *        Program running with 16 parallel MPI-processes    *
           *              working on a common directory               *
           ************************************************************
------------------------------------------------------------------------------
                           ORCA GTO INTEGRAL CALCULATION
                           -- RI-GTO INTEGRALS CHOSEN --
------------------------------------------------------------------------------
------------------------------------------------------------------------------
                   ___                                                        
                  /   \      - P O W E R E D   B Y -                         
                 /     \                                                     
                 |  |  |   _    _      __       _____    __    __             
                 |  |  |  | |  | |    /  \     |  _  \  |  |  /  |          
                  \  \/   | |  | |   /    \    | | | |  |  | /  /          
                 / \  \   | |__| |  /  /\  \   | |_| |  |  |/  /          
                |  |  |   |  __  | /  /__\  \  |    /   |      \           
                |  |  |   | |  | | |   __   |  |    \   |  |\   \          
                \     /   | |  | | |  |  |  |  | |\  \  |  | \   \       
                 \___/    |_|  |_| |__|  |__|  |_| \__\ |__|  \__/        
                                                                              
                      - O R C A' S   B I G   F R I E N D -                    
                                      &                                       
                       - I N T E G R A L  F E E D E R -                       
                                                                              
 v1 FN, 2020, v2 2021                                                         
------------------------------------------------------------------------------


Reading SHARK input file betulin_eth_freq.SHARKINP.tmp ... ok
----------------------
SHARK INTEGRAL PACKAGE
----------------------

Number of atoms                             ...    100
Number of basis functions                   ...    656
Number of shells                            ...    352
Maximum angular momentum                    ...      2
Integral batch strategy                     ... SHARK/LIBINT Hybrid
RI-J (if used) integral strategy            ... SPLIT-RIJ (Revised 2003 algorithm where possible)
Printlevel                                  ...      1
Contraction scheme used                     ... SEGMENTED contraction
Coulomb Range Separation                    ... NOT USED
Exchange Range Separation                   ... NOT USED
Finite Nucleus Model                        ... NOT USED
Auxiliary Coulomb fitting basis             ... AVAILABLE
   # of basis functions in Aux-J            ...   2544
   # of shells in Aux-J                     ...    880
   Maximum angular momentum in Aux-J        ...      4
Auxiliary J/K fitting basis                 ... NOT available
Auxiliary Correlation fitting basis         ... NOT available
Auxiliary 'external' fitting basis          ... NOT available
Integral threshold                          ...     1.000000e-10
Primitive cut-off                           ...     1.000000e-11
Primitive pair pre-selection threshold      ...     1.000000e-11

Calculating pre-screening integrals         ... done (  0.0 sec) Dimension = 352
Organizing shell pair data                  ... done (  0.2 sec)
Shell pair information
Total number of shell pairs                 ...     62128
Shell pairs after pre-screening             ...     31656
Total number of primitive shell pairs       ...    335955
Primitive shell pairs kept                  ...     89198
          la=0 lb=0:  13835 shell pairs
          la=1 lb=0:  10179 shell pairs
          la=1 lb=1:   1873 shell pairs
          la=2 lb=0:   3963 shell pairs
          la=2 lb=1:   1516 shell pairs
          la=2 lb=2:    290 shell pairs

Calculating one electron integrals          ... done (  0.0 sec)
Calculating RI/J V-Matrix + Cholesky decomp.... done (  0.2 sec)
Calculating Nuclear repulsion               ... done (  0.0 sec) ENN=   4729.897692249007 Eh

SHARK setup successfully completed in   0.7 seconds

Maximum memory used throughout the entire GTOINT-calculation: 54.9 MB


           ************************************************************
           *        Program running with 16 parallel MPI-processes    *
           *              working on a common directory               *
           ************************************************************
-------------------------------------------------------------------------------
                                 ORCA SCF
-------------------------------------------------------------------------------

------------
SCF SETTINGS
------------
Hamiltonian:
 Density Functional     Method          .... DFT(GTOs)
 Exchange Functional    Exchange        .... B88
   X-Alpha parameter    XAlpha          ....  0.666667
   Becke's b parameter  XBeta           ....  0.004200
 Correlation Functional Correlation     .... LYP
 LDA part of GGA corr.  LDAOpt          .... VWN-5
 Gradients option       PostSCFGGA      .... off
 Hybrid DFT is turned on
   Fraction HF Exchange ScalHFX         ....  0.200000
   Scaling of DF-GGA-X  ScalDFX         ....  0.720000
   Scaling of DF-GGA-C  ScalDFC         ....  0.810000
   Scaling of DF-LDA-C  ScalLDAC        ....  1.000000
   Perturbative correction              ....  0.000000
   Density functional embedding theory  .... OFF
   NL short-range parameter             ....  4.800000
 RI-approximation to the Coulomb term is turned on
   Number of AuxJ basis functions       .... 2544
   RIJ-COSX (HFX calculated with COS-X)).... on


General Settings:
 Integral files         IntName         .... betulin_eth_freq
 Hartree-Fock type      HFTyp           .... RHF
 Total Charge           Charge          ....    0
 Multiplicity           Mult            ....    1
 Number of Electrons    NEL             ....  298
 Basis Dimension        Dim             ....  656
 Nuclear Repulsion      ENuc            ....   4729.8976922490 Eh

Convergence Acceleration:
 DIIS                   CNVDIIS         .... on
   Start iteration      DIISMaxIt       ....    12
   Startup error        DIISStart       ....  0.200000
   # of expansion vecs  DIISMaxEq       ....     5
   Bias factor          DIISBfac        ....   1.050
   Max. coefficient     DIISMaxC        ....  10.000
 Trust-Rad. Augm. Hess. CNVTRAH         .... auto
   Auto Start mean grad. ratio tolernc. ....  1.125000
   Auto Start start iteration           ....    20
   Auto Start num. interpolation iter.  ....    10
   Max. Number of Micro iterations      ....    16
   Max. Number of Macro iterations      .... Maxiter - #DIIS iter
   Number of Davidson start vectors     ....     2
   Converg. threshold I  (grad. norm)   ....   5.000e-05
   Converg. threshold II (energy diff.) ....   1.000e-06
   Grad. Scal. Fac. for Micro threshold ....   0.100
   Minimum threshold for Micro iter.    ....   0.010
   NR start threshold (gradient norm)   ....   0.001
   Initial trust radius                 ....   0.400
   Minimum AH scaling param. (alpha)    ....   1.000
   Maximum AH scaling param. (alpha)    .... 1000.000
   Orbital update algorithm             .... Taylor
   White noise on init. David. guess    .... on
   Maximum white noise                  ....   0.010
   Quad. conv. algorithm                .... NR
 SOSCF                  CNVSOSCF        .... on
   Start iteration      SOSCFMaxIt      ....   150
   Startup grad/error   SOSCFStart      ....  0.003300
 Level Shifting         CNVShift        .... on
   Level shift para.    LevelShift      ....    0.2500
   Turn off err/grad.   ShiftErr        ....    0.0010
 Zerner damping         CNVZerner       .... off
 Static damping         CNVDamp         .... on
   Fraction old density DampFac         ....    0.7000
   Max. Damping (<1)    DampMax         ....    0.9800
   Min. Damping (>=0)   DampMin         ....    0.0000
   Turn off err/grad.   DampErr         ....    0.1000
 Fernandez-Rico         CNVRico         .... off

SCF Procedure:
 Maximum # iterations   MaxIter         ....   125
 SCF integral mode      SCFMode         .... Direct
   Integral package                     .... SHARK and LIBINT hybrid scheme
 Reset frequency        DirectResetFreq ....    20
 Integral Threshold     Thresh          ....  1.000e-10 Eh
 Primitive CutOff       TCut            ....  1.000e-11 Eh

Convergence Tolerance:
 Convergence Check Mode ConvCheckMode   .... Total+1el-Energy
 Convergence forced     ConvForced      .... 0
 Energy Change          TolE            ....  1.000e-06 Eh
 1-El. energy change                    ....  1.000e-03 Eh
 Orbital Gradient       TolG            ....  5.000e-05
 Orbital Rotation angle TolX            ....  5.000e-05
 DIIS Error             TolErr          ....  1.000e-06


Diagonalization of the overlap matrix:
Smallest eigenvalue                        ... 1.448e-03
Time for diagonalization                   ...    0.055 sec
Threshold for overlap eigenvalues          ... 1.000e-08
Number of eigenvalues below threshold      ... 0
Time for construction of square roots      ...    0.051 sec
Total time needed                          ...    0.108 sec

Time for model grid setup =    0.435 sec

------------------------------
INITIAL GUESS: MODEL POTENTIAL
------------------------------
Loading Hartree-Fock densities                     ... done
Calculating cut-offs                               ... done
Initializing the effective Hamiltonian             ... done
Setting up the integral package (SHARK)            ... done
Starting the Coulomb interaction                   ... done (   0.3 sec)
Reading the grid                                   ... done
Mapping shells                                     ... done
Starting the XC term evaluation                    ... done (   0.1 sec)
  promolecular density results
     # of electrons  =    297.946805514
     EX              =   -226.170894786
     EC              =     -9.874904820
     EX+EC           =   -236.045799607
Transforming the Hamiltonian                       ... done (   0.0 sec)
Diagonalizing the Hamiltonian                      ... done (   0.0 sec)
Back transforming the eigenvectors                 ... done (   0.0 sec)
Now organizing SCF variables                       ... done
                      ------------------
                      INITIAL GUESS DONE (   1.0 sec)
                      ------------------
-------------------
DFT GRID GENERATION
-------------------

General Integration Accuracy     IntAcc      ... 4.388
Radial Grid Type                 RadialGrid  ... OptM3 with GC (2021)
Angular Grid (max. ang.)         AngularGrid ... 4 (Lebedev-302)
Angular grid pruning method      GridPruning ... 4 (adaptive)
Weight generation scheme         WeightScheme... Becke
Basis function cutoff            BFCut       ... 1.0000e-10
Integration weight cutoff        WCut        ... 1.0000e-14
Angular grids for H and He will be reduced by one unit
Partially contracted basis set               ... off
Rotationally invariant grid construction     ... off

Total number of grid points                  ...   417154
Total number of batches                      ...     6570
Average number of points per batch           ...       63
Average number of grid points per atom       ...     4172
Time for grid setup =    2.025 sec

--------------------
COSX GRID GENERATION
--------------------

GRIDX 1
-------
General Integration Accuracy     IntAcc      ... 3.816
Radial Grid Type                 RadialGrid  ... OptM3 with GC (2021)
Angular Grid (max. ang.)         AngularGrid ... 1 (Lebedev-50)
Angular grid pruning method      GridPruning ... 4 (adaptive)
Weight generation scheme         WeightScheme... Becke
Basis function cutoff            BFCut       ... 1.0000e-10
Integration weight cutoff        WCut        ... 1.0000e-14
Angular grids for H and He will be reduced by one unit
Partially contracted basis set               ... on
Rotationally invariant grid construction     ... off

Total number of grid points                  ...    52919
Total number of batches                      ...      878
Average number of points per batch           ...       60
Average number of grid points per atom       ...      529
UseSFitting                                  ... on

GRIDX 2
-------
General Integration Accuracy     IntAcc      ... 4.020
Radial Grid Type                 RadialGrid  ... OptM3 with GC (2021)
Angular Grid (max. ang.)         AngularGrid ... 2 (Lebedev-110)
Angular grid pruning method      GridPruning ... 4 (adaptive)
Weight generation scheme         WeightScheme... Becke
Basis function cutoff            BFCut       ... 1.0000e-10
Integration weight cutoff        WCut        ... 1.0000e-14
Angular grids for H and He will be reduced by one unit
Partially contracted basis set               ... on
Rotationally invariant grid construction     ... off

Total number of grid points                  ...   108559
Total number of batches                      ...     1742
Average number of points per batch           ...       62
Average number of grid points per atom       ...     1086
UseSFitting                                  ... on

GRIDX 3
-------
General Integration Accuracy     IntAcc      ... 4.338
Radial Grid Type                 RadialGrid  ... OptM3 with GC (2021)
Angular Grid (max. ang.)         AngularGrid ... 3 (Lebedev-194)
Angular grid pruning method      GridPruning ... 4 (adaptive)
Weight generation scheme         WeightScheme... Becke
Basis function cutoff            BFCut       ... 1.0000e-10
Integration weight cutoff        WCut        ... 1.0000e-14
Angular grids for H and He will be reduced by one unit
Partially contracted basis set               ... on
Rotationally invariant grid construction     ... off

Total number of grid points                  ...   234330
Total number of batches                      ...     3711
Average number of points per batch           ...       63
Average number of grid points per atom       ...     2343
UseSFitting                                  ... on

Time for X-Grid setup             =    1.921 sec


--------------------
CPCM SOLVATION MODEL
--------------------
CPCM parameters:
  Epsilon                                         ...      24.3000
  Refrac                                          ...       1.3610
  Rsolv                                           ...       1.3000
  Surface type                                    ... GAUSSIAN VDW
  Epsilon function type                           ...         CPCM
Radii:
 Radius for O  used is    3.4469 Bohr (=   1.8240 Ang.)
 Radius for C  used is    3.8550 Bohr (=   2.0400 Ang.)
 Radius for H  used is    2.4944 Bohr (=   1.3200 Ang.)
Calculating surface                               ...        done! (  0.0s)
GEPOL surface points                              ...         4689
GEPOL Volume                                      ...    4701.1762
GEPOL Surface-area                                ...    2252.2715
Calculating surface distance matrix               ...        done! (  0.2s)
Performing Cholesky decomposition & store         ...        done! (  0.8s)
Overall time for CPCM initialization              ...                 1.0s
--------------
SCF ITERATIONS
--------------
ITER       Energy         Delta-E        Max-DP      RMS-DP      [F,P]     Damp
               ***  Starting incremental Fock matrix formation  ***
  0  -1631.5071612622   0.000000000000 0.07774811  0.00124088  0.2529590 0.7000
  1  -1632.0523245429  -0.545163280760 0.04409094  0.00090687  0.1111284 0.7000
                               ***Turning on DIIS***
  2  -1632.2770571168  -0.224732573883 0.06500628  0.00148121  0.0368223 0.0000
  3  -1632.5997055118  -0.322648394964 0.03115931  0.00066815  0.0586514 0.0000
  4  -1632.6874155796  -0.087710067784 0.01016728  0.00018054  0.0115459 0.0000
  5  -1632.6909544415  -0.003538861916 0.00402106  0.00006041  0.0063483 0.0000
                      *** Initiating the SOSCF procedure ***
                           *** Shutting down DIIS ***
                      *** Re-Reading the Fockian *** 
                      *** Removing any level shift *** 
ITER      Energy       Delta-E        Grad      Rot      Max-DP    RMS-DP
  6  -1632.69123836  -0.0002839183  0.000138  0.000138  0.000865  0.000018
               *** Restarting incremental Fock matrix formation ***
  7  -1632.69129820  -0.0000598391  0.000104  0.000401  0.000644  0.000010
  8  -1632.69129894  -0.0000007444  0.000140  0.000240  0.000389  0.000004
  9  -1632.69130021  -0.0000012675  0.000034  0.000078  0.000124  0.000002
 10  -1632.69130016   0.0000000465  0.000029  0.000051  0.000092  0.000001
                  ***Gradient check signals convergence***
              ***Rediagonalizing the Fockian in SOSCF/NRSCF***

               *****************************************************
               *                     SUCCESS                       *
               *           SCF CONVERGED AFTER  11 CYCLES          *
               *****************************************************

Old exchange energy                            =    -46.350814285 Eh
New exchange energy                            =    -46.350852687 Eh
Exchange energy change after final integration =     -0.000038402 Eh
Total energy after final integration           =  -1632.691338722 Eh
Final COS-X integration done in                =    12.124 sec

----------------
TOTAL SCF ENERGY
----------------

Total Energy       :        -1632.69133872 Eh          -44427.78999 eV

Components:
Nuclear Repulsion  :         4729.89769225 Eh          128707.05955 eV
Electronic Energy  :        -6362.58903097 Eh         -173134.84954 eV
One Electron Energy:       -11632.13616246 Eh         -316526.51688 eV
Two Electron Energy:         5269.54713149 Eh          143391.66734 eV
Max COSX asymmetry :            0.00000670 Eh               0.00018 eV
CPCM Dielectric    :           -0.02947836 Eh              -0.80215 eV

Virial components:
Potential Energy   :        -3256.14469686 Eh          -88604.20175 eV
Kinetic Energy     :         1623.45335814 Eh           44176.41176 eV
Virial Ratio       :            2.00569033


DFT components:
N(Alpha)           :      149.000393288655 electrons
N(Beta)            :      149.000393288655 electrons
N(Total)           :      298.000786577310 electrons
E(X)               :     -183.668116205185 Eh       
E(C)               :      -11.617225253305 Eh       
E(XC)              :     -195.285341458490 Eh       
DFET-embed. en.    :        0.000000000000 Eh       
CPCM Solvation Model Properties:
Surface-charge          :           -0.04409674
Charge-correction       :           -0.00004906 Eh              -0.00133 eV
Free-energy (cav+disp)  :  This term is not implemented in the current solvation scheme

---------------
SCF CONVERGENCE
---------------

  Last Energy change         ...   -1.5605e-07  Tolerance :   1.0000e-06
  Last MAX-Density change    ...    4.4409e-15  Tolerance :   1.0000e-05
  Last RMS-Density change    ...    3.5717e-17  Tolerance :   1.0000e-06
  Last Orbital Gradient      ...    1.1823e-05  Tolerance :   5.0000e-05
  Last Orbital Rotation      ...    3.0633e-05  Tolerance :   5.0000e-05

             **** THE GBW FILE WAS UPDATED (betulin_eth_freq.gbw) ****
             **** DENSITY betulin_eth_freq.scfp WAS UPDATED ****
             **** ENERGY FILE WAS UPDATED (betulin_eth_freq.en.tmp) ****
             **** THE GBW FILE WAS UPDATED (betulin_eth_freq.gbw) ****
             **** DENSITY betulin_eth_freq.scfp WAS UPDATED ****
----------------
ORBITAL ENERGIES
----------------

  NO   OCC          E(Eh)            E(eV) 
   0   2.0000     -19.146947      -521.0149 
   1   2.0000     -19.143810      -520.9295 
   2   2.0000     -19.107811      -519.9500 
   3   2.0000     -19.106234      -519.9071 
   4   2.0000     -10.218873      -278.0697 
   5   2.0000     -10.213055      -277.9114 
   6   2.0000     -10.208043      -277.7750 
   7   2.0000     -10.207271      -277.7540 
   8   2.0000     -10.181331      -277.0481 
   9   2.0000     -10.179759      -277.0053 
  10   2.0000     -10.178243      -276.9641 
  11   2.0000     -10.176014      -276.9034 
  12   2.0000     -10.175389      -276.8864 
  13   2.0000     -10.173042      -276.8225 
  14   2.0000     -10.171070      -276.7689 
  15   2.0000     -10.164692      -276.5953 
  16   2.0000     -10.164164      -276.5810 
  17   2.0000     -10.162225      -276.5282 
  18   2.0000     -10.161959      -276.5210 
  19   2.0000     -10.161810      -276.5169 
  20   2.0000     -10.160557      -276.4828 
  21   2.0000     -10.160292      -276.4756 
  22   2.0000     -10.159383      -276.4509 
  23   2.0000     -10.157491      -276.3994 
  24   2.0000     -10.157171      -276.3907 
  25   2.0000     -10.156505      -276.3725 
  26   2.0000     -10.155933      -276.3570 
  27   2.0000     -10.155616      -276.3484 
  28   2.0000     -10.154319      -276.3131 
  29   2.0000     -10.153509      -276.2910 
  30   2.0000     -10.153335      -276.2863 
  31   2.0000     -10.153006      -276.2774 
  32   2.0000     -10.152853      -276.2732 
  33   2.0000     -10.152731      -276.2699 
  34   2.0000     -10.149374      -276.1785 
  35   2.0000     -10.147006      -276.1141 
  36   2.0000     -10.145246      -276.0662 
  37   2.0000     -10.141481      -275.9637 
  38   2.0000      -1.018284       -27.7089 
  39   2.0000      -1.017474       -27.6869 
  40   2.0000      -0.983775       -26.7699 
  41   2.0000      -0.982977       -26.7482 
  42   2.0000      -0.855161       -23.2701 
  43   2.0000      -0.840977       -22.8842 
  44   2.0000      -0.817483       -22.2448 
  45   2.0000      -0.793758       -21.5993 
  46   2.0000      -0.778642       -21.1879 
  47   2.0000      -0.775038       -21.0899 
  48   2.0000      -0.759486       -20.6667 
  49   2.0000      -0.738906       -20.1066 
  50   2.0000      -0.732931       -19.9441 
  51   2.0000      -0.732493       -19.9321 
  52   2.0000      -0.728026       -19.8106 
  53   2.0000      -0.718875       -19.5616 
  54   2.0000      -0.703219       -19.1356 
  55   2.0000      -0.689218       -18.7546 
  56   2.0000      -0.676977       -18.4215 
  57   2.0000      -0.672532       -18.3005 
  58   2.0000      -0.668999       -18.2044 
  59   2.0000      -0.659192       -17.9375 
  60   2.0000      -0.657765       -17.8987 
  61   2.0000      -0.656468       -17.8634 
  62   2.0000      -0.640969       -17.4417 
  63   2.0000      -0.607831       -16.5399 
  64   2.0000      -0.599755       -16.3202 
  65   2.0000      -0.594729       -16.1834 
  66   2.0000      -0.594052       -16.1650 
  67   2.0000      -0.589250       -16.0343 
  68   2.0000      -0.571403       -15.5487 
  69   2.0000      -0.567220       -15.4348 
  70   2.0000      -0.543223       -14.7818 
  71   2.0000      -0.537916       -14.6375 
  72   2.0000      -0.525165       -14.2905 
  73   2.0000      -0.512880       -13.9562 
  74   2.0000      -0.503363       -13.6972 
  75   2.0000      -0.498012       -13.5516 
  76   2.0000      -0.495554       -13.4847 
  77   2.0000      -0.493890       -13.4394 
  78   2.0000      -0.484537       -13.1849 
  79   2.0000      -0.479249       -13.0410 
  80   2.0000      -0.470900       -12.8138 
  81   2.0000      -0.464376       -12.6363 
  82   2.0000      -0.461088       -12.5468 
  83   2.0000      -0.457740       -12.4557 
  84   2.0000      -0.450609       -12.2617 
  85   2.0000      -0.448605       -12.2072 
  86   2.0000      -0.447982       -12.1902 
  87   2.0000      -0.446240       -12.1428 
  88   2.0000      -0.443698       -12.0736 
  89   2.0000      -0.436257       -11.8712 
  90   2.0000      -0.434137       -11.8135 
  91   2.0000      -0.427620       -11.6361 
  92   2.0000      -0.420431       -11.4405 
  93   2.0000      -0.414140       -11.2693 
  94   2.0000      -0.409620       -11.1463 
  95   2.0000      -0.409157       -11.1337 
  96   2.0000      -0.406551       -11.0628 
  97   2.0000      -0.400002       -10.8846 
  98   2.0000      -0.395793       -10.7701 
  99   2.0000      -0.393465       -10.7067 
 100   2.0000      -0.390990       -10.6394 
 101   2.0000      -0.386509       -10.5174 
 102   2.0000      -0.384477       -10.4621 
 103   2.0000      -0.383791       -10.4435 
 104   2.0000      -0.379749       -10.3335 
 105   2.0000      -0.376348       -10.2410 
 106   2.0000      -0.374572       -10.1926 
 107   2.0000      -0.371144       -10.0993 
 108   2.0000      -0.369881       -10.0650 
 109   2.0000      -0.366666        -9.9775 
 110   2.0000      -0.364748        -9.9253 
 111   2.0000      -0.360688        -9.8148 
 112   2.0000      -0.359606        -9.7854 
 113   2.0000      -0.356652        -9.7050 
 114   2.0000      -0.353391        -9.6163 
 115   2.0000      -0.352595        -9.5946 
 116   2.0000      -0.352433        -9.5902 
 117   2.0000      -0.351885        -9.5753 
 118   2.0000      -0.351104        -9.5540 
 119   2.0000      -0.348838        -9.4924 
 120   2.0000      -0.343996        -9.3606 
 121   2.0000      -0.340387        -9.2624 
 122   2.0000      -0.334139        -9.0924 
 123   2.0000      -0.332081        -9.0364 
 124   2.0000      -0.330173        -8.9845 
 125   2.0000      -0.324224        -8.8226 
 126   2.0000      -0.323568        -8.8047 
 127   2.0000      -0.322714        -8.7815 
 128   2.0000      -0.318413        -8.6645 
 129   2.0000      -0.314461        -8.5569 
 130   2.0000      -0.313515        -8.5312 
 131   2.0000      -0.309391        -8.4189 
 132   2.0000      -0.308761        -8.4018 
 133   2.0000      -0.305241        -8.3060 
 134   2.0000      -0.301551        -8.2056 
 135   2.0000      -0.298681        -8.1275 
 136   2.0000      -0.296741        -8.0747 
 137   2.0000      -0.294954        -8.0261 
 138   2.0000      -0.286824        -7.8049 
 139   2.0000      -0.282424        -7.6852 
 140   2.0000      -0.276833        -7.5330 
 141   2.0000      -0.274348        -7.4654 
 142   2.0000      -0.263841        -7.1795 
 143   2.0000      -0.262007        -7.1296 
 144   2.0000      -0.252608        -6.8738 
 145   2.0000      -0.246662        -6.7120 
 146   2.0000      -0.245857        -6.6901 
 147   2.0000      -0.245371        -6.6769 
 148   2.0000      -0.227279        -6.1846 
 149   0.0000       0.031732         0.8635 
 150   0.0000       0.064348         1.7510 
 151   0.0000       0.067028         1.8239 
 152   0.0000       0.085328         2.3219 
 153   0.0000       0.093518         2.5448 
 154   0.0000       0.095557         2.6002 
 155   0.0000       0.101463         2.7610 
 156   0.0000       0.105151         2.8613 
 157   0.0000       0.115065         3.1311 
 158   0.0000       0.117333         3.1928 
 159   0.0000       0.119154         3.2423 
 160   0.0000       0.123021         3.3476 
 161   0.0000       0.123872         3.3707 
 162   0.0000       0.124840         3.3971 
 163   0.0000       0.130612         3.5541 
 164   0.0000       0.134878         3.6702 
 165   0.0000       0.137127         3.7314 
 166   0.0000       0.138347         3.7646 
 167   0.0000       0.142254         3.8709 
 168   0.0000       0.146812         3.9950 
 169   0.0000       0.147692         4.0189 
 170   0.0000       0.152186         4.1412 
 171   0.0000       0.156288         4.2528 
 172   0.0000       0.156880         4.2689 
 173   0.0000       0.159845         4.3496 
 174   0.0000       0.162688         4.4270 
 175   0.0000       0.164655         4.4805 
 176   0.0000       0.165255         4.4968 
 177   0.0000       0.166598         4.5334 
 178   0.0000       0.168209         4.5772 
 179   0.0000       0.169781         4.6200 
 180   0.0000       0.170695         4.6448 
 181   0.0000       0.173261         4.7147 
 182   0.0000       0.174306         4.7431 
 183   0.0000       0.177957         4.8424 
 184   0.0000       0.179652         4.8886 
 185   0.0000       0.182469         4.9652 
 186   0.0000       0.185577         5.0498 
 187   0.0000       0.188286         5.1235 
 188   0.0000       0.190613         5.1868 
 189   0.0000       0.192087         5.2269 
 190   0.0000       0.192771         5.2456 
 191   0.0000       0.196711         5.3528 
 192   0.0000       0.197655         5.3785 
 193   0.0000       0.199080         5.4172 
 194   0.0000       0.201269         5.4768 
 195   0.0000       0.206432         5.6173 
 196   0.0000       0.208105         5.6628 
 197   0.0000       0.208927         5.6852 
 198   0.0000       0.209631         5.7043 
 199   0.0000       0.212984         5.7956 
 200   0.0000       0.215257         5.8574 
 201   0.0000       0.217051         5.9063 
 202   0.0000       0.218433         5.9439 
 203   0.0000       0.219717         5.9788 
 204   0.0000       0.221258         6.0207 
 205   0.0000       0.224152         6.0995 
 206   0.0000       0.225639         6.1399 
 207   0.0000       0.229596         6.2476 
 208   0.0000       0.232005         6.3132 
 209   0.0000       0.239062         6.5052 
 210   0.0000       0.239883         6.5275 
 211   0.0000       0.241641         6.5754 
 212   0.0000       0.244392         6.6502 
 213   0.0000       0.245530         6.6812 
 214   0.0000       0.247232         6.7275 
 215   0.0000       0.251906         6.8547 
 216   0.0000       0.252167         6.8618 
 217   0.0000       0.255858         6.9622 
 218   0.0000       0.257246         7.0000 
 219   0.0000       0.259138         7.0515 
 220   0.0000       0.260901         7.0995 
 221   0.0000       0.262937         7.1549 
 222   0.0000       0.265250         7.2178 
 223   0.0000       0.267821         7.2878 
 224   0.0000       0.271940         7.3999 
 225   0.0000       0.274667         7.4741 
 226   0.0000       0.276312         7.5188 
 227   0.0000       0.283449         7.7130 
 228   0.0000       0.284865         7.7516 
 229   0.0000       0.286791         7.8040 
 230   0.0000       0.293564         7.9883 
 231   0.0000       0.297243         8.0884 
 232   0.0000       0.299597         8.1524 
 233   0.0000       0.305656         8.3173 
 234   0.0000       0.306010         8.3270 
 235   0.0000       0.312808         8.5119 
 236   0.0000       0.313528         8.5315 
 237   0.0000       0.317318         8.6347 
 238   0.0000       0.320218         8.7136 
 239   0.0000       0.326551         8.8859 
 240   0.0000       0.329772         8.9736 
 241   0.0000       0.338268         9.2047 
 242   0.0000       0.342139         9.3101 
 243   0.0000       0.348315         9.4781 
 244   0.0000       0.353851         9.6288 
 245   0.0000       0.359231         9.7752 
 246   0.0000       0.367647        10.0042 
 247   0.0000       0.373434        10.1617 
 248   0.0000       0.378299        10.2940 
 249   0.0000       0.392892        10.6911 
 250   0.0000       0.398898        10.8546 
 251   0.0000       0.411454        11.1962 
 252   0.0000       0.501726        13.6527 
 253   0.0000       0.507072        13.7981 
 254   0.0000       0.512610        13.9488 
 255   0.0000       0.516715        14.0605 
 256   0.0000       0.518230        14.1018 
 257   0.0000       0.527009        14.3407 
 258   0.0000       0.532389        14.4870 
 259   0.0000       0.533769        14.5246 
 260   0.0000       0.534803        14.5527 
 261   0.0000       0.539105        14.6698 
 262   0.0000       0.541093        14.7239 
 263   0.0000       0.545931        14.8555 
[...]
279:   3127.31   0.008870   44.83  0.000885  (-0.024882  0.015386 -0.005410)
280:   3127.89   0.013772   69.60  0.001374  ( 0.028259  0.019902 -0.013390)
281:   3129.19   0.013615   68.80  0.001358  (-0.009859  0.007320 -0.034742)
282:   3130.23   0.010069   50.88  0.001004  ( 0.010089 -0.025965 -0.015094)
283:   3132.37   0.009957   50.32  0.000992  (-0.003377  0.030670  0.006319)
284:   3134.91   0.016447   83.12  0.001637  ( 0.020751 -0.034676 -0.002049)
285:   3137.46   0.008289   41.89  0.000824  ( 0.005977  0.027492  0.005740)
286:   3147.19   0.009947   50.27  0.000986  (-0.002093 -0.031303 -0.001437)
287:   3149.86   0.011970   60.49  0.001186  (-0.031449 -0.013861  0.002171)
288:   3153.00   0.011959   60.43  0.001184  (-0.029526 -0.017637  0.000859)
289:   3158.79   0.003700   18.70  0.000366  (-0.003012 -0.013999 -0.012668)
290:   3160.43   0.010657   53.86  0.001052  (-0.018472  0.024111  0.011390)
291:   3168.50   0.011024   55.71  0.001086  ( 0.023326  0.010797  0.020616)
292:   3169.30   0.010953   55.35  0.001078  (-0.018156  0.027256  0.002432)
293:   3172.43   0.003845   19.43  0.000378  (-0.009978  0.004954  0.015941)
294:   3181.84   0.010275   51.93  0.001008  (-0.017313 -0.026265  0.004262)
295:   3237.66   0.007049   35.62  0.000679  ( 0.000711 -0.019667  0.017092)
296:   3577.18   0.181328  916.36  0.015819  (-0.116747  0.002454  0.046719)
297:   3589.41   0.180833  913.85  0.015722  (-0.073887  0.056235 -0.084261)
298:   3802.71   0.012329   62.30  0.001012  (-0.004440  0.029329  0.011482)
299:   3823.58   0.014154   71.53  0.001155  ( 0.011338  0.031655  0.004953)

* The epsilon (eps) is given for a Dirac delta lineshape.
** The dipole moment derivative (T) already includes vibrational overlap.

The first frequency considered to be a vibration is 14
The total number of vibrations considered is 286


--------------------------
THERMOCHEMISTRY AT 298.15K
--------------------------

Temperature         ... 298.15 K
Pressure            ... 1.00 atm
Total Mass          ... 534.87 AMU

Throughout the following assumptions are being made:
  (1) The electronic state is orbitally nondegenerate
  (2) There are no thermally accessible electronically excited states
  (3) Hindered rotations indicated by low frequency modes are not
      treated as such but are treated as vibrations and this may
      cause some error
  (4) All equations used are the standard statistical mechanics
      equations for an ideal gas
  (5) All vibrations are strictly harmonic

freq.       8.33  E(vib)   ...       0.58 
freq.      15.94  E(vib)   ...       0.57 
freq.      28.12  E(vib)   ...       0.55 
freq.      33.43  E(vib)   ...       0.55 
freq.      37.59  E(vib)   ...       0.54 
freq.      50.14  E(vib)   ...       0.52 
freq.      61.89  E(vib)   ...       0.51 
freq.      65.29  E(vib)   ...       0.50 
freq.      70.94  E(vib)   ...       0.50 
freq.      80.12  E(vib)   ...       0.49 
freq.      81.20  E(vib)   ...       0.48 
freq.      88.80  E(vib)   ...       0.47 
freq.     110.94  E(vib)   ...       0.45 
freq.     121.38  E(vib)   ...       0.44 
freq.     138.13  E(vib)   ...       0.42 
freq.     149.72  E(vib)   ...       0.40 
freq.     156.42  E(vib)   ...       0.40 
freq.     159.52  E(vib)   ...       0.39 
freq.     168.56  E(vib)   ...       0.38 
freq.     176.66  E(vib)   ...       0.38 
freq.     193.78  E(vib)   ...       0.36 
freq.     209.01  E(vib)   ...       0.34 
freq.     214.46  E(vib)   ...       0.34 
freq.     220.65  E(vib)   ...       0.33 
freq.     238.94  E(vib)   ...       0.32 
freq.     239.71  E(vib)   ...       0.31 
freq.     243.07  E(vib)   ...       0.31 
freq.     243.39  E(vib)   ...       0.31 
freq.     253.48  E(vib)   ...       0.30 
freq.     258.13  E(vib)   ...       0.30 
freq.     265.35  E(vib)   ...       0.29 
freq.     269.21  E(vib)   ...       0.29 
freq.     276.78  E(vib)   ...       0.28 
freq.     281.88  E(vib)   ...       0.28 
freq.     295.29  E(vib)   ...       0.27 
freq.     297.53  E(vib)   ...       0.27 
freq.     301.41  E(vib)   ...       0.26 
freq.     310.89  E(vib)   ...       0.26 
freq.     322.83  E(vib)   ...       0.25 
freq.     328.74  E(vib)   ...       0.24 
freq.     340.92  E(vib)   ...       0.23 
freq.     348.10  E(vib)   ...       0.23 
freq.     356.51  E(vib)   ...       0.22 
freq.     369.48  E(vib)   ...       0.21 
freq.     375.82  E(vib)   ...       0.21 
freq.     377.82  E(vib)   ...       0.21 
freq.     396.65  E(vib)   ...       0.20 
freq.     404.24  E(vib)   ...       0.19 
freq.     408.84  E(vib)   ...       0.19 
freq.     432.45  E(vib)   ...       0.18 
freq.     435.67  E(vib)   ...       0.17 
freq.     440.14  E(vib)   ...       0.17 
freq.     447.70  E(vib)   ...       0.17 
freq.     455.75  E(vib)   ...       0.16 
freq.     460.23  E(vib)   ...       0.16 
freq.     466.51  E(vib)   ...       0.16 
freq.     479.30  E(vib)   ...       0.15 
freq.     481.68  E(vib)   ...       0.15 
freq.     510.77  E(vib)   ...       0.14 
freq.     519.59  E(vib)   ...       0.13 
freq.     529.78  E(vib)   ...       0.13 
freq.     540.32  E(vib)   ...       0.12 
freq.     548.57  E(vib)   ...       0.12 
freq.     549.64  E(vib)   ...       0.12 
freq.     551.46  E(vib)   ...       0.12 
freq.     563.67  E(vib)   ...       0.11 
freq.     601.17  E(vib)   ...       0.10 
freq.     607.37  E(vib)   ...       0.10 
freq.     615.95  E(vib)   ...       0.10 
freq.     641.48  E(vib)   ...       0.09 
freq.     661.62  E(vib)   ...       0.08 
freq.     680.06  E(vib)   ...       0.08 
freq.     709.31  E(vib)   ...       0.07 
freq.     731.07  E(vib)   ...       0.06 
freq.     738.43  E(vib)   ...       0.06 
freq.     750.38  E(vib)   ...       0.06 
freq.     754.75  E(vib)   ...       0.06 
freq.     780.37  E(vib)   ...       0.05 
freq.     787.55  E(vib)   ...       0.05 
freq.     810.85  E(vib)   ...       0.05 
freq.     812.88  E(vib)   ...       0.05 
freq.     813.60  E(vib)   ...       0.05 
freq.     831.77  E(vib)   ...       0.04 
freq.     851.49  E(vib)   ...       0.04 
freq.     865.69  E(vib)   ...       0.04 
freq.     869.64  E(vib)   ...       0.04 
freq.     885.64  E(vib)   ...       0.04 
freq.     891.98  E(vib)   ...       0.03 
freq.     896.76  E(vib)   ...       0.03 
freq.     897.67  E(vib)   ...       0.03 
freq.     899.30  E(vib)   ...       0.03 
freq.     903.83  E(vib)   ...       0.03 
freq.     915.17  E(vib)   ...       0.03 
freq.     921.46  E(vib)   ...       0.03 
freq.     926.94  E(vib)   ...       0.03 
freq.     934.53  E(vib)   ...       0.03 
freq.     937.93  E(vib)   ...       0.03 
freq.     940.36  E(vib)   ...       0.03 
freq.     947.09  E(vib)   ...       0.03 
freq.     962.24  E(vib)   ...       0.03 
freq.     967.01  E(vib)   ...       0.03 
freq.     972.35  E(vib)   ...       0.03 
freq.     982.34  E(vib)   ...       0.02 
freq.     990.39  E(vib)   ...       0.02 
freq.     994.41  E(vib)   ...       0.02 
freq.    1004.24  E(vib)   ...       0.02 
freq.    1011.03  E(vib)   ...       0.02 
freq.    1013.32  E(vib)   ...       0.02 
freq.    1021.26  E(vib)   ...       0.02 
freq.    1023.86  E(vib)   ...       0.02 
freq.    1027.97  E(vib)   ...       0.02 
freq.    1032.08  E(vib)   ...       0.02 
freq.    1039.40  E(vib)   ...       0.02 
freq.    1043.89  E(vib)   ...       0.02 
freq.    1055.59  E(vib)   ...       0.02 
freq.    1056.32  E(vib)   ...       0.02 
freq.    1057.34  E(vib)   ...       0.02 
freq.    1061.77  E(vib)   ...       0.02 
freq.    1074.23  E(vib)   ...       0.02 
freq.    1079.71  E(vib)   ...       0.02 
freq.    1089.74  E(vib)   ...       0.02 
freq.    1092.36  E(vib)   ...       0.02 
freq.    1101.25  E(vib)   ...       0.02 
freq.    1105.72  E(vib)   ...       0.02 
freq.    1111.06  E(vib)   ...       0.01 
freq.    1111.67  E(vib)   ...       0.01 
freq.    1115.35  E(vib)   ...       0.01 
freq.    1121.46  E(vib)   ...       0.01 
freq.    1132.29  E(vib)   ...       0.01 
freq.    1134.26  E(vib)   ...       0.01 
freq.    1140.08  E(vib)   ...       0.01 
freq.    1155.10  E(vib)   ...       0.01 
freq.    1156.36  E(vib)   ...       0.01 
freq.    1164.51  E(vib)   ...       0.01 
freq.    1173.26  E(vib)   ...       0.01 
freq.    1180.54  E(vib)   ...       0.01 
freq.    1184.28  E(vib)   ...       0.01 
freq.    1184.95  E(vib)   ...       0.01 
freq.    1194.08  E(vib)   ...       0.01 
freq.    1206.86  E(vib)   ...       0.01 
freq.    1211.26  E(vib)   ...       0.01 
freq.    1219.10  E(vib)   ...       0.01 
freq.    1225.35  E(vib)   ...       0.01 
freq.    1227.70  E(vib)   ...       0.01 
freq.    1231.45  E(vib)   ...       0.01 
freq.    1236.91  E(vib)   ...       0.01 
freq.    1240.96  E(vib)   ...       0.01 
freq.    1256.65  E(vib)   ...       0.01 
freq.    1269.79  E(vib)   ...       0.01 
freq.    1272.06  E(vib)   ...       0.01 
freq.    1285.17  E(vib)   ...       0.01 
freq.    1290.16  E(vib)   ...       0.01 
freq.    1299.13  E(vib)   ...       0.01 
freq.    1300.47  E(vib)   ...       0.01 
freq.    1300.97  E(vib)   ...       0.01 
freq.    1305.69  E(vib)   ...       0.01 
freq.    1311.94  E(vib)   ...       0.01 
freq.    1315.12  E(vib)   ...       0.01 
freq.    1323.55  E(vib)   ...       0.01 
freq.    1329.10  E(vib)   ...       0.01 
freq.    1329.40  E(vib)   ...       0.01 
freq.    1334.51  E(vib)   ...       0.01 
freq.    1340.16  E(vib)   ...       0.01 
freq.    1345.79  E(vib)   ...       0.01 
freq.    1358.67  E(vib)   ...       0.01 
freq.    1359.78  E(vib)   ...       0.01 
freq.    1362.25  E(vib)   ...       0.01 
freq.    1370.70  E(vib)   ...       0.01 
freq.    1375.86  E(vib)   ...       0.01 
freq.    1381.18  E(vib)   ...       0.01 
freq.    1385.43  E(vib)   ...       0.00 
freq.    1387.48  E(vib)   ...       0.00 
freq.    1390.79  E(vib)   ...       0.00 
freq.    1391.71  E(vib)   ...       0.00 
freq.    1398.48  E(vib)   ...       0.00 
freq.    1399.41  E(vib)   ...       0.00 
freq.    1402.01  E(vib)   ...       0.00 
freq.    1404.89  E(vib)   ...       0.00 
freq.    1411.03  E(vib)   ...       0.00 
freq.    1416.62  E(vib)   ...       0.00 
freq.    1416.76  E(vib)   ...       0.00 
freq.    1417.55  E(vib)   ...       0.00 
freq.    1421.29  E(vib)   ...       0.00 
freq.    1426.26  E(vib)   ...       0.00 
freq.    1426.80  E(vib)   ...       0.00 
freq.    1428.39  E(vib)   ...       0.00 
freq.    1434.44  E(vib)   ...       0.00 
freq.    1436.90  E(vib)   ...       0.00 
freq.    1444.60  E(vib)   ...       0.00 
freq.    1446.02  E(vib)   ...       0.00 
freq.    1451.80  E(vib)   ...       0.00 
freq.    1467.37  E(vib)   ...       0.00 
freq.    1486.99  E(vib)   ...       0.00 
freq.    1490.22  E(vib)   ...       0.00 
freq.    1495.56  E(vib)   ...       0.00 
freq.    1499.78  E(vib)   ...       0.00 
freq.    1499.93  E(vib)   ...       0.00 
freq.    1500.26  E(vib)   ...       0.00 
freq.    1504.83  E(vib)   ...       0.00 
freq.    1505.72  E(vib)   ...       0.00 
freq.    1506.84  E(vib)   ...       0.00 
freq.    1508.13  E(vib)   ...       0.00 
freq.    1509.11  E(vib)   ...       0.00 
freq.    1510.15  E(vib)   ...       0.00 
freq.    1511.22  E(vib)   ...       0.00 
freq.    1511.73  E(vib)   ...       0.00 
freq.    1511.84  E(vib)   ...       0.00 
freq.    1512.31  E(vib)   ...       0.00 
freq.    1516.07  E(vib)   ...       0.00 
freq.    1519.46  E(vib)   ...       0.00 
freq.    1520.85  E(vib)   ...       0.00 
freq.    1523.46  E(vib)   ...       0.00 
freq.    1523.86  E(vib)   ...       0.00 
freq.    1524.68  E(vib)   ...       0.00 
freq.    1526.74  E(vib)   ...       0.00 
freq.    1531.03  E(vib)   ...       0.00 
freq.    1533.99  E(vib)   ...       0.00 
freq.    1536.63  E(vib)   ...       0.00 
freq.    1539.96  E(vib)   ...       0.00 
freq.    1541.87  E(vib)   ...       0.00 
freq.    1544.04  E(vib)   ...       0.00 
freq.    1544.67  E(vib)   ...       0.00 
freq.    1552.62  E(vib)   ...       0.00 
freq.    1710.69  E(vib)   ...       0.00 
freq.    3002.97  E(vib)   ...       0.00 
freq.    3007.73  E(vib)   ...       0.00 
freq.    3008.33  E(vib)   ...       0.00 
freq.    3030.88  E(vib)   ...       0.00 
freq.    3034.70  E(vib)   ...       0.00 
freq.    3035.57  E(vib)   ...       0.00 
freq.    3045.34  E(vib)   ...       0.00 
freq.    3047.73  E(vib)   ...       0.00 
freq.    3049.09  E(vib)   ...       0.00 
freq.    3053.90  E(vib)   ...       0.00 
freq.    3054.33  E(vib)   ...       0.00 
freq.    3055.95  E(vib)   ...       0.00 
freq.    3056.22  E(vib)   ...       0.00 
freq.    3057.89  E(vib)   ...       0.00 
freq.    3059.22  E(vib)   ...       0.00 
freq.    3060.72  E(vib)   ...       0.00 
freq.    3062.37  E(vib)   ...       0.00 
freq.    3064.39  E(vib)   ...       0.00 
freq.    3067.40  E(vib)   ...       0.00 
freq.    3068.12  E(vib)   ...       0.00 
freq.    3068.63  E(vib)   ...       0.00 
freq.    3072.23  E(vib)   ...       0.00 
freq.    3072.88  E(vib)   ...       0.00 
freq.    3075.06  E(vib)   ...       0.00 
freq.    3080.29  E(vib)   ...       0.00 
freq.    3082.80  E(vib)   ...       0.00 
freq.    3082.96  E(vib)   ...       0.00 
freq.    3085.88  E(vib)   ...       0.00 
freq.    3091.28  E(vib)   ...       0.00 
freq.    3097.06  E(vib)   ...       0.00 
freq.    3099.36  E(vib)   ...       0.00 
freq.    3101.50  E(vib)   ...       0.00 
freq.    3102.83  E(vib)   ...       0.00 
freq.    3104.33  E(vib)   ...       0.00 
freq.    3105.30  E(vib)   ...       0.00 
freq.    3109.05  E(vib)   ...       0.00 
freq.    3112.40  E(vib)   ...       0.00 
freq.    3112.48  E(vib)   ...       0.00 
freq.    3116.34  E(vib)   ...       0.00 
freq.    3124.99  E(vib)   ...       0.00 
freq.    3126.32  E(vib)   ...       0.00 
freq.    3127.31  E(vib)   ...       0.00 
freq.    3127.89  E(vib)   ...       0.00 
freq.    3129.19  E(vib)   ...       0.00 
freq.    3130.23  E(vib)   ...       0.00 
freq.    3132.37  E(vib)   ...       0.00 
freq.    3134.91  E(vib)   ...       0.00 
freq.    3137.46  E(vib)   ...       0.00 
freq.    3147.19  E(vib)   ...       0.00 
freq.    3149.86  E(vib)   ...       0.00 
freq.    3153.00  E(vib)   ...       0.00 
freq.    3158.79  E(vib)   ...       0.00 
freq.    3160.43  E(vib)   ...       0.00 
freq.    3168.50  E(vib)   ...       0.00 
freq.    3169.30  E(vib)   ...       0.00 
freq.    3172.43  E(vib)   ...       0.00 
freq.    3181.84  E(vib)   ...       0.00 
freq.    3237.66  E(vib)   ...       0.00 
freq.    3577.18  E(vib)   ...       0.00 
freq.    3589.41  E(vib)   ...       0.00 
freq.    3802.71  E(vib)   ...       0.00 
freq.    3823.58  E(vib)   ...       0.00 

------------
INNER ENERGY
------------

The inner energy is: U= E(el) + E(ZPE) + E(vib) + E(rot) + E(trans)
    E(el)   - is the total energy from the electronic structure calculation
              = E(kin-el) + E(nuc-el) + E(el-el) + E(nuc-nuc)
    E(ZPE)  - the the zero temperature vibrational energy from the frequency calculation
    E(vib)  - the the finite temperature correction to E(ZPE) due to population
              of excited vibrational states
    E(rot)  - is the rotational thermal energy
    E(trans)- is the translational thermal energy

Summary of contributions to the inner energy U:
Electronic energy                ...  -1632.69133872 Eh
Zero point energy                ...      0.91885217 Eh     576.59 kcal/mol
Thermal vibrational correction   ...      0.03594708 Eh      22.56 kcal/mol
Thermal rotational correction    ...      0.00141627 Eh       0.89 kcal/mol
Thermal translational correction ...      0.00141627 Eh       0.89 kcal/mol
-----------------------------------------------------------------------
Total thermal energy                  -1631.73370693 Eh


Summary of corrections to the electronic energy:
(perhaps to be used in another calculation)
Total thermal correction                  0.03877962 Eh      24.33 kcal/mol
Non-thermal (ZPE) correction              0.91885217 Eh     576.59 kcal/mol
-----------------------------------------------------------------------
Total correction                          0.95763179 Eh     600.92 kcal/mol


--------
ENTHALPY
--------

The enthalpy is H = U + kB*T
                kB is Boltzmann's constant
Total free energy                 ...  -1631.73370693 Eh 
Thermal Enthalpy correction       ...      0.00094421 Eh       0.59 kcal/mol
-----------------------------------------------------------------------
Total Enthalpy                    ...  -1631.73276272 Eh


Note: Only C1 symmetry has been detected, increase convergence thresholds 
      if your molecule has a higher symmetry. Symmetry factor of 1.0 is   
      used for the rotational entropy correction. 
 

Note: Rotational entropy computed according to Herzberg 
Infrared and Raman Spectra, Chapter V,1, Van Nostrand Reinhold, 1945 
Point Group:  C1, Symmetry Number:   1  
Rotational constants in cm-1:     0.005389     0.001196     0.001103 

Vibrational entropy computed according to the QRRHO of S. Grimme
Chem.Eur.J. 2012 18 9955


-------
ENTROPY
-------

The entropy contributions are T*S = T*(S(el)+S(vib)+S(rot)+S(trans))
     S(el)   - electronic entropy
     S(vib)  - vibrational entropy
     S(rot)  - rotational entropy
     S(trans)- translational entropy
The entropies will be listed as multiplied by the temperature to get
units of energy

Electronic entropy                ...      0.00000000 Eh      0.00 kcal/mol
Vibrational entropy               ...      0.06323932 Eh     39.68 kcal/mol
Rotational entropy                ...      0.01836779 Eh     11.53 kcal/mol
Translational entropy             ...      0.02124611 Eh     13.33 kcal/mol
-----------------------------------------------------------------------
Final entropy term                ...      0.10285322 Eh     64.54 kcal/mol

In case the symmetry of your molecule has not been determined correctly
or in case you have a reason to use a different symmetry number we print 
out the resulting rotational entropy values for sn=1,12 :
 --------------------------------------------------------
|  sn= 1 | S(rot)=       0.01836779 Eh     11.53 kcal/mol|
|  sn= 2 | S(rot)=       0.01771333 Eh     11.12 kcal/mol|
|  sn= 3 | S(rot)=       0.01733050 Eh     10.88 kcal/mol|
|  sn= 4 | S(rot)=       0.01705887 Eh     10.70 kcal/mol|
|  sn= 5 | S(rot)=       0.01684819 Eh     10.57 kcal/mol|
|  sn= 6 | S(rot)=       0.01667604 Eh     10.46 kcal/mol|
|  sn= 7 | S(rot)=       0.01653050 Eh     10.37 kcal/mol|
|  sn= 8 | S(rot)=       0.01640442 Eh     10.29 kcal/mol|
|  sn= 9 | S(rot)=       0.01629321 Eh     10.22 kcal/mol|
|  sn=10 | S(rot)=       0.01619373 Eh     10.16 kcal/mol|
|  sn=11 | S(rot)=       0.01610374 Eh     10.11 kcal/mol|
|  sn=12 | S(rot)=       0.01602159 Eh     10.05 kcal/mol|
 --------------------------------------------------------


-------------------
GIBBS FREE ENERGY
-------------------

The Gibbs free energy is G = H - T*S

Total enthalpy                    ...  -1631.73276272 Eh 
Total entropy correction          ...     -0.10285322 Eh    -64.54 kcal/mol
-----------------------------------------------------------------------
Final Gibbs free energy         ...  -1631.83561594 Eh

For completeness - the Gibbs free energy minus the electronic energy
G-E(el)                           ...      0.85572278 Eh    536.97 kcal/mol


Timings for individual modules:

Sum of individual times         ...     2284.724 sec (=  38.079 min)
GTO integral calculation        ...        1.058 sec (=   0.018 min)   0.0 %
SCF iterations                  ...       92.017 sec (=   1.534 min)   4.0 %
Analytical frequency calculation...     2191.649 sec (=  36.527 min)  95.9 %
                             ****ORCA TERMINATED NORMALLY****
TOTAL RUN TIME: 0 days 0 hours 38 minutes 5 seconds 775 msec
