
                                 *****************
                                 * O   R   C   A *
                                 *****************

                                            #,                                       
                                            ###                                      
                                            ####                                     
                                            #####                                    
                                            ######                                   
                                           ########,                                 
                                     ,,################,,,,,                         
                               ,,#################################,,                 
                          ,,##########################################,,             
                       ,#########################################, ''#####,          
                    ,#############################################,,   '####,        
                  ,##################################################,,,,####,       
                ,###########''''           ''''###############################       
              ,#####''   ,,,,##########,,,,          '''####'''          '####       
            ,##' ,,,,###########################,,,                        '##       
           ' ,,###''''                  '''############,,,                           
         ,,##''                                '''############,,,,        ,,,,,,###''
      ,#''                                            '''#######################'''  
     '                                                          ''''####''''         
             ,#######,   #######,   ,#######,      ##                                
            ,#'     '#,  ##    ##  ,#'     '#,    #''#        ######   ,####,        
            ##       ##  ##   ,#'  ##            #'  '#       #        #'  '#        
            ##       ##  #######   ##           ,######,      #####,   #    #        
            '#,     ,#'  ##    ##  '#,     ,#' ,#      #,         ##   #,  ,#        
             '#######'   ##     ##  '#######'  #'      '#     #####' # '####'        



                  #######################################################
                  #                        -***-                        #
                  #          Department of theory and spectroscopy      #
                  #    Directorship and core code : Frank Neese         #
                  #        Max Planck Institute fuer Kohlenforschung    #
                  #                Kaiser Wilhelm Platz 1               #
                  #                 D-45470 Muelheim/Ruhr               #
                  #                      Germany                        #
                  #                                                     #
                  #                  All rights reserved                #
                  #                        -***-                        #
                  #######################################################


                         Program Version 5.0.4 -  RELEASE  -


 With contributions from (in alphabetic order):
   Daniel Aravena         : Magnetic Suceptibility
   Michael Atanasov       : Ab Initio Ligand Field Theory (pilot matlab implementation)
   Alexander A. Auer      : GIAO ZORA, VPT2 properties, NMR spectrum
   Ute Becker             : Parallelization
   Giovanni Bistoni       : ED, misc. LED, open-shell LED, HFLD
   Martin Brehm           : Molecular dynamics
   Dmytro Bykov           : SCF Hessian
   Vijay G. Chilkuri      : MRCI spin determinant printing, contributions to CSF-ICE
   Dipayan Datta          : RHF DLPNO-CCSD density
   Achintya Kumar Dutta   : EOM-CC, STEOM-CC
   Dmitry Ganyushin       : Spin-Orbit,Spin-Spin,Magnetic field MRCI
   Miquel Garcia          : C-PCM and meta-GGA Hessian, CC/C-PCM, Gaussian charge scheme
   Yang Guo               : DLPNO-NEVPT2, F12-NEVPT2, CIM, IAO-localization
   Andreas Hansen         : Spin unrestricted coupled pair/coupled cluster methods
   Benjamin Helmich-Paris : MC-RPA, TRAH-SCF, COSX integrals
   Lee Huntington         : MR-EOM, pCC
   Robert Izsak           : Overlap fitted RIJCOSX, COSX-SCS-MP3, EOM
   Marcus Kettner         : VPT2
   Christian Kollmar      : KDIIS, OOCD, Brueckner-CCSD(T), CCSD density, CASPT2, CASPT2-K
   Simone Kossmann        : Meta GGA functionals, TD-DFT gradient, OOMP2, MP2 Hessian
   Martin Krupicka        : Initial AUTO-CI
   Lucas Lang             : DCDCAS
   Marvin Lechner         : AUTO-CI (C++ implementation), FIC-MRCC
   Dagmar Lenk            : GEPOL surface, SMD
   Dimitrios Liakos       : Extrapolation schemes; Compound Job, initial MDCI parallelization
   Dimitrios Manganas     : Further ROCIS development; embedding schemes
   Dimitrios Pantazis     : SARC Basis sets
   Anastasios Papadopoulos: AUTO-CI, single reference methods and gradients
   Taras Petrenko         : DFT Hessian,TD-DFT gradient, ASA, ECA, R-Raman, ABS, FL, XAS/XES, NRVS
   Peter Pinski           : DLPNO-MP2, DLPNO-MP2 Gradient
   Christoph Reimann      : Effective Core Potentials
   Marius Retegan         : Local ZFS, SOC
   Christoph Riplinger    : Optimizer, TS searches, QM/MM, DLPNO-CCSD(T), (RO)-DLPNO pert. Triples
   Tobias Risthaus        : Range-separated hybrids, TD-DFT gradient, RPA, STAB
   Michael Roemelt        : Original ROCIS implementation
   Masaaki Saitow         : Open-shell DLPNO-CCSD energy and density
   Barbara Sandhoefer     : DKH picture change effects
   Avijit Sen             : IP-ROCIS
   Kantharuban Sivalingam : CASSCF convergence, NEVPT2, FIC-MRCI
   Bernardo de Souza      : ESD, SOC TD-DFT
   Georgi Stoychev        : AutoAux, RI-MP2 NMR, DLPNO-MP2 response
   Willem Van den Heuvel  : Paramagnetic NMR
   Boris Wezisla          : Elementary symmetry handling
   Frank Wennmohs         : Technical directorship


 We gratefully acknowledge several colleagues who have allowed us to
 interface, adapt or use parts of their codes:
   Stefan Grimme, W. Hujo, H. Kruse, P. Pracht,  : VdW corrections, initial TS optimization,
                  C. Bannwarth, S. Ehlert          DFT functionals, gCP, sTDA/sTD-DF
   Ed Valeev, F. Pavosevic, A. Kumar             : LibInt (2-el integral package), F12 methods
   Garnet Chan, S. Sharma, J. Yang, R. Olivares  : DMRG
   Ulf Ekstrom                                   : XCFun DFT Library
   Mihaly Kallay                                 : mrcc  (arbitrary order and MRCC methods)
   Jiri Pittner, Ondrej Demel                    : Mk-CCSD
   Frank Weinhold                                : gennbo (NPA and NBO analysis)
   Christopher J. Cramer and Donald G. Truhlar   : smd solvation model
   Lars Goerigk                                  : TD-DFT with DH, B97 family of functionals
   V. Asgeirsson, H. Jonsson                     : NEB implementation
   FAccTs GmbH                                   : IRC, NEB, NEB-TS, DLPNO-Multilevel, CI-OPT
                                                   MM, QMMM, 2- and 3-layer-ONIOM, Crystal-QMMM,
                                                   LR-CPCM, SF, NACMEs, symmetry and pop. for TD-DFT,
                                                   nearIR, NL-DFT gradient (VV10), updates on ESD,
                                                   ML-optimized integration grids
   S Lehtola, MJT Oliveira, MAL Marques          : LibXC Library
   Liviu Ungur et al                             : ANISO software


 Your calculation uses the libint2 library for the computation of 2-el integrals
 For citations please refer to: http://libint.valeyev.net

 Your ORCA version has been built with support for libXC version: 5.1.0
 For citations please refer to: https://tddft.org/programs/libxc/

 This ORCA versions uses:
   CBLAS   interface :  Fast vector & matrix operations
   LAPACKE interface :  Fast linear algebra routines
   SCALAPACK package :  Parallel linear algebra routines
   Shared memory     :  Shared parallel matrices
   BLAS/LAPACK       :  OpenBLAS 0.3.15  USE64BITINT DYNAMIC_ARCH NO_AFFINITY Zen SINGLE_THREADED
        Core in use  :  Zen
   Copyright (c) 2011-2014, The OpenBLAS Project


================================================================================

----- Orbital basis set information -----
Your calculation utilizes the basis: 6-31++G(d,p)
   H-He, Li-Ne : W. J. Hehre, R. Ditchfield and J.A. Pople, J. Chem. Phys. 56, 2257 (1972).
                 Note: He and Ne are unpublished basis sets taken from the Gaussian program.
                 Note: Li and B from J. D. Dill and J. A. Pople, J. Chem. Phys. 62, 2921 (1975).
   Na - Ar     : M. M. Francl, W. J. Pietro, W. J. Hehre, J. S. Binkley, M. S. Gordon, 
                 D. J. DeFrees and J. A. Pople, J. Chem. Phys. 77, 3654 (1982).
   K - Zn      : V. A. Rassolov, J. A. Pople, M. A. Ratner, and T. L. Windus, J. Chem. Phys. 109, 1223 (1998).
   Additional Pol./Diff. from the 6-311G equivalent.

----- AuxJ basis set information -----
Your calculation utilizes the auxiliary basis: def2/J
   F. Weigend, Phys. Chem. Chem. Phys. 8, 1057 (2006).

================================================================================
                                        WARNINGS
                       Please study these warnings very carefully!
================================================================================

WARNING: Old DensityContainer found on disk!
         Will remove this file - 
         If you want to keep old densities, please start your calculation with a different basename. 


INFO   : the flag for use of the SHARK integral package has been found!

================================================================================
                                       INPUT FILE
================================================================================
NAME = betulin_isoprop_freq3.inp
|  1> # avogadro generated ORCA file
|  2> # C36H66O4 | Frequencies | B3LYP/6-31G(d)
|  3> # 
|  4> ! Freq B3LYP 6-31++G(d,p)
|  5> 
|  6> %maxcore 3200
|  7> 
|  8> %pal
|  9>    nprocs 8
| 10> end
| 11> 
| 12> * xyz 0 1
| 13>    O     -6.059024    1.340782    0.420349
| 14>    O      4.539192   -2.704541    2.133018
| 15>    C     -0.533516   -0.936743    0.186177
| 16>    C      0.961801   -0.875796   -0.411908
| 17>    C     -1.217474    0.452394   -0.086638
| 18>    C      1.744025    0.258408    0.354156
| 19>    C     -2.779069    0.559973    0.135361
| 20>    C      3.240846    0.244296   -0.012235
| 21>    C      3.917898   -1.123864    0.300226
| 22>    C     -3.447893   -0.619069   -0.641595
| 23>    C      1.693555   -2.243749   -0.248061
| 24>    C     -1.359890   -2.049189   -0.506290
| 25>    C     -0.424511    1.591432    0.584072
| 26>    C      1.055169    1.620011    0.167986
| 27>    C      3.211509   -2.206401   -0.527347
| 28>    C     -2.864684   -1.975417   -0.215779
| 29>    C      4.214085    1.294156    0.595512
| 30>    C     -5.022215   -0.610603   -0.728147
| 31>    C     -3.258910    1.905492   -0.519688
| 32>    C      5.376154   -0.823381   -0.092284
| 33>    C     -0.493005   -1.277002    1.701162
| 34>    C      0.953591   -0.585258   -1.938704
| 35>    C      5.626021    0.618150    0.418586
| 36>    C     -3.171951    0.594605    1.631535
| 37>    C     -5.570131    0.846080   -0.853979
| 38>    C     -4.509033    1.786095   -1.413473
| 39>    C      3.866901   -1.469245    1.808886
| 40>    C      4.203571    2.692029    0.005492
| 41>    C     -5.416104   -1.327706   -2.043104
| 42>    C     -5.711345   -1.364499    0.426197
| 43>    C      4.242486    2.833844   -1.497502
| 44>    C      4.221802    3.772504    0.799813
| 45>    H     -1.125333    0.607961   -1.166358
| 46>    H      1.678369    0.030199    1.422556
| 47>    H      3.320323    0.352908   -1.099851
| 48>    H     -3.116740   -0.477085   -1.680427
| 49>    H      1.235746   -2.974744   -0.922580
| 50>    H      1.547534   -2.637675    0.759592
| 51>    H     -0.979134   -3.031461   -0.204161
| 52>    H     -1.235475   -1.988935   -1.591643
| 53>    H     -0.480560    1.503413    1.673903
| 54>    H     -0.876979    2.557208    0.337932
| 55>    H      1.139704    1.947105   -0.874769
| 56>    H      1.575843    2.373904    0.764925
| 57>    H      3.634753   -3.199050   -0.329456
| 58>    H      3.403901   -2.009965   -1.587849
| 59>    H     -3.357470   -2.785026   -0.764583
| 60>    H     -3.064801   -2.167759    0.842451
| 61>    H      4.006241    1.397337    1.665714
| 62>    H     -2.460400    2.330414   -1.135411
| 63>    H     -3.451872    2.640367    0.267701
| 64>    H      5.468088   -0.862064   -1.183503
| 65>    H      6.087311   -1.543804    0.319974
| 66>    H     -1.477056   -1.573243    2.062011
| 67>    H      0.173237   -2.118149    1.899618
| 68>    H     -0.162930   -0.446567    2.325778
| 69>    H      1.968106   -0.587574   -2.341370
| 70>    H      0.405394   -1.359708   -2.480044
| 71>    H      0.514734    0.375780   -2.204143
| 72>    H      6.152591    0.617917    1.376910
| 73>    H      6.250833    1.181682   -0.278703
| 74>    H     -4.211638    0.901617    1.742655
| 75>    H     -3.056080   -0.366705    2.132694
| 76>    H     -2.558606    1.322814    2.170153
| 77>    H     -6.430552    0.825090   -1.534533
| 78>    H     -4.946631    2.780039   -1.571673
| 79>    H     -4.230924    1.419230   -2.407785
| 80>    H      2.840181   -1.529747    2.175241
| 81>    H      4.381526   -0.709661    2.398908
| 82>    H     -6.505215   -1.413724   -2.123010
| 83>    H     -5.055305   -0.781410   -2.921291
| 84>    H     -4.997469   -2.337128   -2.082566
| 85>    H     -6.799388   -1.301820    0.321073
| 86>    H     -5.442131   -2.423923    0.401463
| 87>    H     -5.447910   -0.970587    1.407804
| 88>    H     -6.238860    2.283981    0.313376
| 89>    H      4.014125   -3.445815    1.807461
| 90>    H      3.303676    2.496574   -1.950293
| 91>    H      4.403992    3.874686   -1.789681
| 92>    H      5.039239    2.224487   -1.939364
| 93>    H      4.269413    4.778520    0.391937
| 94>    H      4.184726    3.681300    1.882134
| 95>    H      9.125735   -4.437629    3.990515
| 96>    C      9.013680   -4.812100    2.968405
| 97>    H      9.726675   -4.284169    2.325013
| 98>    H      9.267891   -5.876424    2.961931
| 99>    C      7.590484   -4.602028    2.467863
|100>    H      6.898021   -5.132252    3.138594
|101>    O      7.315046   -3.192283    2.544930
|102>    H      6.372429   -3.044996    2.339995
|103>    C      7.392498   -5.125538    1.044853
|104>    H      8.082514   -4.627860    0.354280
|105>    H      7.578198   -6.204256    1.002507
|106>    H      6.368772   -4.944637    0.701540
|107>    H     -8.710338    0.352544    4.827706
|108>    C     -9.203962    1.175272    4.301359
|109>    H    -10.172082    0.819005    3.931491
|110>    H     -9.385729    1.982294    5.017636
|111>    C     -8.343178    1.670474    3.146127
|112>    H     -7.375336    2.007154    3.546132
|113>    O     -8.114941    0.548065    2.276050
|114>    H     -7.447171    0.793849    1.608456
|115>    C     -8.994663    2.830013    2.392647
|116>    H     -9.969368    2.527658    1.993651
|117>    H     -9.143732    3.686597    3.059040
|118>    H     -8.366004    3.157116    1.557800
|119> *
|120> 
|121> 
|122> 
|123>                          ****END OF INPUT****
================================================================================

                       ****************************
                       * Single Point Calculation *
                       ****************************

---------------------------------
CARTESIAN COORDINATES (ANGSTROEM)
---------------------------------
  O     -6.059024    1.340782    0.420349
  O      4.539192   -2.704541    2.133018
  C     -0.533516   -0.936743    0.186177
  C      0.961801   -0.875796   -0.411908
  C     -1.217474    0.452394   -0.086638
  C      1.744025    0.258408    0.354156
  C     -2.779069    0.559973    0.135361
  C      3.240846    0.244296   -0.012235
  C      3.917898   -1.123864    0.300226
  C     -3.447893   -0.619069   -0.641595
  C      1.693555   -2.243749   -0.248061
  C     -1.359890   -2.049189   -0.506290
  C     -0.424511    1.591432    0.584072
  C      1.055169    1.620011    0.167986
  C      3.211509   -2.206401   -0.527347
  C     -2.864684   -1.975417   -0.215779
  C      4.214085    1.294156    0.595512
  C     -5.022215   -0.610603   -0.728147
  C     -3.258910    1.905492   -0.519688
  C      5.376154   -0.823381   -0.092284
  C     -0.493005   -1.277002    1.701162
  C      0.953591   -0.585258   -1.938704
  C      5.626021    0.618150    0.418586
  C     -3.171951    0.594605    1.631535
  C     -5.570131    0.846080   -0.853979
  C     -4.509033    1.786095   -1.413473
  C      3.866901   -1.469245    1.808886
  C      4.203571    2.692029    0.005492
  C     -5.416104   -1.327706   -2.043104
  C     -5.711345   -1.364499    0.426197
  C      4.242486    2.833844   -1.497502
  C      4.221802    3.772504    0.799813
  H     -1.125333    0.607961   -1.166358
  H      1.678369    0.030199    1.422556
  H      3.320323    0.352908   -1.099851
  H     -3.116740   -0.477085   -1.680427
  H      1.235746   -2.974744   -0.922580
  H      1.547534   -2.637675    0.759592
  H     -0.979134   -3.031461   -0.204161
  H     -1.235475   -1.988935   -1.591643
  H     -0.480560    1.503413    1.673903
  H     -0.876979    2.557208    0.337932
  H      1.139704    1.947105   -0.874769
  H      1.575843    2.373904    0.764925
  H      3.634753   -3.199050   -0.329456
  H      3.403901   -2.009965   -1.587849
  H     -3.357470   -2.785026   -0.764583
  H     -3.064801   -2.167759    0.842451
  H      4.006241    1.397337    1.665714
  H     -2.460400    2.330414   -1.135411
  H     -3.451872    2.640367    0.267701
  H      5.468088   -0.862064   -1.183503
  H      6.087311   -1.543804    0.319974
  H     -1.477056   -1.573243    2.062011
  H      0.173237   -2.118149    1.899618
  H     -0.162930   -0.446567    2.325778
  H      1.968106   -0.587574   -2.341370
  H      0.405394   -1.359708   -2.480044
  H      0.514734    0.375780   -2.204143
  H      6.152591    0.617917    1.376910
  H      6.250833    1.181682   -0.278703
  H     -4.211638    0.901617    1.742655
  H     -3.056080   -0.366705    2.132694
  H     -2.558606    1.322814    2.170153
  H     -6.430552    0.825090   -1.534533
  H     -4.946631    2.780039   -1.571673
  H     -4.230924    1.419230   -2.407785
  H      2.840181   -1.529747    2.175241
  H      4.381526   -0.709661    2.398908
  H     -6.505215   -1.413724   -2.123010
  H     -5.055305   -0.781410   -2.921291
  H     -4.997469   -2.337128   -2.082566
  H     -6.799388   -1.301820    0.321073
  H     -5.442131   -2.423923    0.401463
  H     -5.447910   -0.970587    1.407804
  H     -6.238860    2.283981    0.313376
  H      4.014125   -3.445815    1.807461
  H      3.303676    2.496574   -1.950293
  H      4.403992    3.874686   -1.789681
  H      5.039239    2.224487   -1.939364
  H      4.269413    4.778520    0.391937
  H      4.184726    3.681300    1.882134
  H      9.125735   -4.437629    3.990515
  C      9.013680   -4.812100    2.968405
  H      9.726675   -4.284169    2.325013
  H      9.267891   -5.876424    2.961931
  C      7.590484   -4.602028    2.467863
  H      6.898021   -5.132252    3.138594
  O      7.315046   -3.192283    2.544930
  H      6.372429   -3.044996    2.339995
  C      7.392498   -5.125538    1.044853
  H      8.082514   -4.627860    0.354280
  H      7.578198   -6.204256    1.002507
  H      6.368772   -4.944637    0.701540
  H     -8.710338    0.352544    4.827706
  C     -9.203962    1.175272    4.301359
  H    -10.172082    0.819005    3.931491
  H     -9.385729    1.982294    5.017636
  C     -8.343178    1.670474    3.146127
  H     -7.375336    2.007154    3.546132
  O     -8.114941    0.548065    2.276050
  H     -7.447171    0.793849    1.608456
  C     -8.994663    2.830013    2.392647
  H     -9.969368    2.527658    1.993651
  H     -9.143732    3.686597    3.059040
  H     -8.366004    3.157116    1.557800

----------------------------
CARTESIAN COORDINATES (A.U.)
----------------------------
  NO LB      ZA    FRAG     MASS         X           Y           Z
   0 O     8.0000    0    15.999  -11.449896    2.533711    0.794344
   1 O     8.0000    0    15.999    8.577830   -5.110842    4.030820
   2 C     6.0000    0    12.011   -1.008199   -1.770188    0.351824
   3 C     6.0000    0    12.011    1.817540   -1.655015   -0.778393
   4 C     6.0000    0    12.011   -2.300692    0.854901   -0.163722
   5 C     6.0000    0    12.011    3.295730    0.488320    0.669258
   6 C     6.0000    0    12.011   -5.251679    1.058196    0.255795
   7 C     6.0000    0    12.011    6.124311    0.461653   -0.023121
   8 C     6.0000    0    12.011    7.403754   -2.123795    0.567345
   9 C     6.0000    0    12.011   -6.515574   -1.169871   -1.212439
  10 C     6.0000    0    12.011    3.200355   -4.240071   -0.468767
  11 C     6.0000    0    12.011   -2.569820   -3.872406   -0.956749
  12 C     6.0000    0    12.011   -0.802210    3.007371    1.103736
  13 C     6.0000    0    12.011    1.993980    3.061377    0.317448
  14 C     6.0000    0    12.011    6.068872   -4.169494   -0.996541
  15 C     6.0000    0    12.011   -5.413468   -3.732997   -0.407763
  16 C     6.0000    0    12.011    7.963467    2.445600    1.125355
  17 C     6.0000    0    12.011   -9.490611   -1.153872   -1.375998
  18 C     6.0000    0    12.011   -6.158447    3.600858   -0.982068
  19 C     6.0000    0    12.011   10.159459   -1.555965   -0.174391
  20 C     6.0000    0    12.011   -0.931644   -2.413184    3.214730
  21 C     6.0000    0    12.011    1.802026   -1.105977   -3.663620
  22 C     6.0000    0    12.011   10.631639    1.168134    0.791013
  23 C     6.0000    0    12.011   -5.994119    1.123641    3.083154
  24 C     6.0000    0    12.011  -10.526022    1.598859   -1.613786
  25 C     6.0000    0    12.011   -8.520837    3.375230   -2.671077
  26 C     6.0000    0    12.011    7.307384   -2.776471    3.418299
  27 C     6.0000    0    12.011    7.943598    5.087198    0.010378
  28 C     6.0000    0    12.011  -10.234953   -2.509001   -3.860907
  29 C     6.0000    0    12.011  -10.792878   -2.578529    0.805396
  30 C     6.0000    0    12.011    8.017137    5.355189   -2.829869
  31 C     6.0000    0    12.011    7.978050    7.128999    1.511428
  32 H     1.0000    0     1.008   -2.126571    1.148880   -2.204097
  33 H     1.0000    0     1.008    3.171658    0.057068    2.688241
  34 H     1.0000    0     1.008    6.274501    0.666899   -2.078417
  35 H     1.0000    0     1.008   -5.889785   -0.901560   -3.175547
  36 H     1.0000    0     1.008    2.335222   -5.621451   -1.743424
  37 H     1.0000    0     1.008    2.924415   -4.984483    1.435421
  38 H     1.0000    0     1.008   -1.850295   -5.728631   -0.385808
  39 H     1.0000    0     1.008   -2.334709   -3.758542   -3.007769
  40 H     1.0000    0     1.008   -0.908127    2.841039    3.163218
  41 H     1.0000    0     1.008   -1.657250    4.832423    0.638599
  42 H     1.0000    0     1.008    2.153728    3.679495   -1.653074
  43 H     1.0000    0     1.008    2.977912    4.486028    1.445499
  44 H     1.0000    0     1.008    6.868688   -6.045328   -0.622582
  45 H     1.0000    0     1.008    6.432441   -3.798283   -3.000600
  46 H     1.0000    0     1.008   -6.344699   -5.262936   -1.444852
  47 H     1.0000    0     1.008   -5.791635   -4.096471    1.592002
  48 H     1.0000    0     1.008    7.570698    2.640584    3.147743
  49 H     1.0000    0     1.008   -4.649482    4.403844   -2.145616
  50 H     1.0000    0     1.008   -6.523093    4.989571    0.505882
  51 H     1.0000    0     1.008   10.333189   -1.629065   -2.236497
  52 H     1.0000    0     1.008   11.503351   -2.917367    0.604663
  53 H     1.0000    0     1.008   -2.791231   -2.972998    3.896636
  54 H     1.0000    0     1.008    0.327370   -4.002722    3.589758
  55 H     1.0000    0     1.008   -0.307893   -0.843889    4.395083
  56 H     1.0000    0     1.008    3.719181   -1.110354   -4.424548
  57 H     1.0000    0     1.008    0.766084   -2.569476   -4.686604
  58 H     1.0000    0     1.008    0.972706    0.710121   -4.165227
  59 H     1.0000    0     1.008   11.626712    1.167694    2.601983
  60 H     1.0000    0     1.008   11.812362    2.233055   -0.526672
  61 H     1.0000    0     1.008   -7.958842    1.703809    3.293141
  62 H     1.0000    0     1.008   -5.775154   -0.692972    4.030208
  63 H     1.0000    0     1.008   -4.835065    2.499756    4.100995
  64 H     1.0000    0     1.008  -12.151982    1.559194   -2.899847
  65 H     1.0000    0     1.008   -9.347778    5.253512   -2.970032
  66 H     1.0000    0     1.008   -7.995288    2.681956   -4.550054
  67 H     1.0000    0     1.008    5.367164   -2.890803    4.110610
  68 H     1.0000    0     1.008    8.279884   -1.341065    4.533279
  69 H     1.0000    0     1.008  -12.293075   -2.671551   -4.011907
  70 H     1.0000    0     1.008   -9.553142   -1.476651   -5.520440
  71 H     1.0000    0     1.008   -9.443848   -4.416532   -3.935479
  72 H     1.0000    0     1.008  -12.848981   -2.460083    0.606740
  73 H     1.0000    0     1.008  -10.284137   -4.580551    0.758655
  74 H     1.0000    0     1.008  -10.295058   -1.834144    2.660364
  75 H     1.0000    0     1.008  -11.789737    4.316099    0.592195
  76 H     1.0000    0     1.008    7.585597   -6.511647    3.415606
  77 H     1.0000    0     1.008    6.243043    4.717841   -3.685520
  78 H     1.0000    0     1.008    8.322339    7.322095   -3.382007
  79 H     1.0000    0     1.008    9.522782    4.203671   -3.664867
  80 H     1.0000    0     1.008    8.068021    9.030094    0.740654
  81 H     1.0000    0     1.008    7.907986    6.956649    3.556718
  82 H     1.0000    0     1.008   17.245140   -8.385903    7.540980
  83 C     6.0000    0    12.011   17.033387   -9.093551    5.609473
  84 H     1.0000    0     1.008   18.380752   -8.095906    4.393638
  85 H     1.0000    0     1.008   17.513776  -11.104832    5.597238
  86 C     6.0000    0    12.011   14.343936   -8.696573    4.663585
  87 H     1.0000    0     1.008   13.035371   -9.698551    5.931083
  88 O     8.0000    0    15.999   13.823434   -6.032541    4.809221
  89 H     1.0000    0     1.008   12.042146   -5.754209    4.421950
  90 C     6.0000    0    12.011   13.969797   -9.685863    1.974486
  91 H     1.0000    0     1.008   15.273738   -8.745388    0.669492
  92 H     1.0000    0     1.008   14.320719  -11.724345    1.894464
  93 H     1.0000    0     1.008   12.035235   -9.344010    1.325718
  94 H     1.0000    0     1.008  -16.460153    0.666212    9.123042
  95 C     6.0000    0    12.011  -17.392968    2.220942    8.128391
  96 H     1.0000    0     1.008  -19.222449    1.547695    7.429441
  97 H     1.0000    0     1.008  -17.736457    3.745993    9.481958
  98 C     6.0000    0    12.011  -15.766322    3.156738    5.945318
  99 H     1.0000    0     1.008  -13.937365    3.792971    6.701218
 100 O     8.0000    0    15.999  -15.335016    1.035693    4.301111
 101 H     1.0000    0     1.008  -14.073114    1.500157    3.039541
 102 C     6.0000    0    12.011  -16.997450    5.347950    4.521448
 103 H     1.0000    0     1.008  -18.839375    4.776581    3.767454
 104 H     1.0000    0     1.008  -17.279149    6.966659    5.780748
 105 H     1.0000    0     1.008  -15.809456    5.966085    2.943815

--------------------------------
INTERNAL COORDINATES (ANGSTROEM)
--------------------------------
 O      0   0   0     0.000000000000     0.00000000     0.00000000
 O      1   0   0    11.472578422506     0.00000000     0.00000000
 C      2   1   0     5.713813621510    11.45137699     0.00000000
 C      3   2   1     1.611642992267    46.71929914   143.67613920
 C      3   2   4     1.572236678989   135.94672454   291.66765478
 C      4   3   2     1.576434950097   107.89388803   284.44818793
 C      5   3   2     1.580960385736   117.73934262   213.08816984
 C      6   4   3     1.541075799390   111.08953864   171.66241447
 C      8   6   4     1.558169783055   112.48266291   301.95589052
 C      7   5   3     1.562410383566   107.55673885   309.31449618
 C      4   3   2     1.560001655811   111.28931953    45.59823884
 C      3   2   9     1.549174179000   113.81017668   112.65790695
 C      5   3   2     1.541444059612   110.70745948   345.77694737
 C      6   4   3     1.537252284840   110.85866839   300.15631853
 C      9   8   6     1.534844893147   108.13124584    60.57759917
 C     12   3   2     1.534354565132   113.82808377   141.83033542
 C      8   6   4     1.555235219100   120.57884889   178.63453927
 C     10   7   5     1.576722132002   116.78641709   187.93487141
 C      7   5   3     1.571546358541   107.53693411   193.28055079
 C      9   8   6     1.539761246078   100.89714680   182.60433060
 C      3   2   9     1.553253642657    64.95934283   211.10144625
 C      4   3   2     1.554215480286   111.51370762   163.28190380
 C     20   9   8     1.549655864555   104.48939202    40.03612249
 C      7   5   3     1.547285455119   112.83704701    74.48436672
 C      1   2   9     1.451777629610    72.53002341    49.40122457
 C     25   1   2     1.524004823439   110.27554494   287.35249700
 C      2   1  25     1.443257755815    40.03600388    92.01160845
 C     17   8   6     1.517327607580   117.74993585   282.09030209
 C     18  10   7     1.548708225838   107.34165465   151.12650715
 C     18  10   7     1.541353108814   113.74561596   269.53762218
 C     28  17   8     1.510171127881   118.25143401   312.81249680
 C     28  17   8     1.341157875131   120.78410363   135.84552328
 H      5   3   2     1.094754006053   105.07460888   100.15482813
 H      6   4   3     1.094471844324   107.13276719    55.40584603
 H      8   6   4     1.095911366639   107.78715115    56.92060638
 H     10   7   5     1.099542491170   104.09048983   302.34908612
 H     11   4   3     1.094951438132   108.94090326    69.93112116
 H     11   4   3     1.091725420757   110.52463444   314.12788235
 H     12   3   2     1.095954080316   109.57584652    19.02308878
 H     12   3   2     1.094121003980   110.07231498   262.27388678
 H     13   5   3     1.094815255339   110.32792680   293.11382744
 H     13   5   3     1.094548067834   109.96839964   176.68571922
 H     14   6   4     1.096117986845   110.17965907   292.25276934
 H     14   6   4     1.093522857304   109.33972800   176.04692831
 H     15   9   8     1.097109096042   111.30581302   181.25810595
 H     15   9   8     1.095566645971   108.33962094    65.56451790
 H     16  12   3     1.095212584430   108.11100785   178.77858401
 H     16  12   3     1.094026047018   110.73727923   294.26632306
 H     17   8   6     1.095069754811   109.07059158    44.15506452
 H     19   7   5     1.094208270355   110.13387479    11.54801665
 H     19   7   5     1.094192412874   109.20318984   255.73841498
 H     20   9   8     1.095767831617   109.05203940   282.06160756
 H     20   9   8     1.093028012515   113.04281082   162.77282227
 H     21   3   2     1.089186440185   111.04839585   206.44394139
 H     21   3   2     1.091233917228   111.23319887   324.69595815
 H     21   3   2     1.090282964329   113.56703664    85.91958544
 H     22   4   3     1.091506278790   110.92182404   182.37735728
 H     22   4   3     1.092401825753   110.91190624   300.37272635
 H     22   4   3     1.089333450608   113.98011544    62.00166883
 H     23  20   9     1.093462806027   111.49209672    99.00150710
 H     23  20   9     1.092780993561   111.19481794   217.69010730
 H     24   7   5     1.089749090623   110.31358853   166.70420200
 H     24   7   5     1.090276730019   113.43808753   287.53786919
 H     24   7   5     1.093887465250   110.40489766    48.29159921
 H     25   1   2     1.097232256296   106.67115187   168.80062297
 H     26  25   1     1.097471605437   109.50692385   299.25263974
 H     26  25   1     1.095714788369   107.65883100   184.58064720
 H     27   2   1     1.091801463834   108.37643842    23.99414681
 H     27   2   1     1.090840366032   104.75949184   138.52807521
 H     29  18  10     1.095420848570   110.55853804   176.05721498
 H     29  18  10     1.095366443244   111.47020365   296.13555637
 H     29  18  10     1.093501388546   111.14333461    56.39462746
 H     30  18  10     1.094905147611   110.14440418   178.68125546
 H     30  18  10     1.093374208736   110.29776315   296.98094911
 H     30  18  10     1.090007782274   112.93111805    58.08209615
 H      1   2  27     0.966130717463   122.18954553   352.15157399
 H      2   1  76     0.964971428496    73.61115856   200.27082923
 H     31  28  17     1.095506713207   111.12222838    69.51638761
 H     31  28  17     1.093071280860   111.05460629   189.78191239
 H     31  28  17     1.096071769321   111.57637141   310.73261961
 H     32  28  17     1.086599204377   121.61169948   176.60421134
 H     32  28  17     1.086789559406   121.45020377   356.30481144
 H      2   1  76     5.243116040257   167.83508180    91.28433021
 C     83   2  77     1.094300555134    72.09949863    53.75978442
 H     84  83   2     1.095913443868   108.47468754   109.36702743
 H     84  83   2     1.094280915566   108.33491577   226.71585224
 C     84  83   2     1.523206943709   110.81877779   348.02384421
 H     87  84  83     1.100237506589   108.73914463   300.87437930
 O     87  84  83     1.438466676485   107.24528794    58.14243452
 H     89  87  84     0.975816900491   108.76197303   187.26883913
 C     87  84  83     1.529123486314   112.30680356   180.51743190
 H     91  87  84     1.095762994570   110.45426221   301.37252322
 H     91  87  84     1.095404125079   110.55888770    61.38985508
 H     91  87  84     1.094807704963   110.87450563   181.14949609
 H     75  30  18     4.908140359438   124.35115772   127.92248604
 C     95  75  30     1.094343264140    99.63449020   296.63520044
 H     96  95  75     1.095894541967   108.44543325   103.06637416
 H     96  95  75     1.094246997484   108.33395176   220.39966444
 C     96  95  75     1.523395906941   110.74709011   341.75782669
 H     99  96  95     1.100034344641   108.71622937   300.93662103
 O     99  96  95     1.438376889893   107.14044047    58.14036887
 H    101  99  96     0.975709124889   109.02086866   189.35160990
 C     99  96  95     1.528625365531   112.30590910   180.50413724
 H    103  99  96     1.095749146048   110.44358576   301.17563331
 H    103  99  96     1.095462161038   110.56594038    61.19637052
 H    103  99  96     1.095069871880   110.95882205   180.95516090

---------------------------
INTERNAL COORDINATES (A.U.)
---------------------------
 O      0   0   0     0.000000000000     0.00000000     0.00000000
 O      1   0   0    21.680031268470     0.00000000     0.00000000
 C      2   1   0    10.797542924922    11.45137699     0.00000000
 C      3   2   1     3.045563881038    46.71929914   143.67613920
 C      3   2   4     2.971096740995   135.94672454   291.66765478
 C      4   3   2     2.979030323626   107.89388803   284.44818793
 C      5   3   2     2.987582157620   117.73934262   213.08816984
 C      6   4   3     2.912211212461   111.08953864   171.66241447
 C      8   6   4     2.944514160125   112.48266291   301.95589052
 C      7   5   3     2.952527733735   107.55673885   309.31449618
 C      4   3   2     2.947975897947   111.28931953    45.59823884
 C      3   2   9     2.927514932053   113.81017668   112.65790695
 C      5   3   2     2.912907123426   110.70745948   345.77694737
 C      6   4   3     2.904985817092   110.85866839   300.15631853
 C      9   8   6     2.900436506095   108.13124584    60.57759917
 C     12   3   2     2.899509920431   113.82808377   141.83033542
 C      8   6   4     2.938968637929   120.57884889   178.63453927
 C     10   7   5     2.979573018776   116.78641709   187.93487141
 C      7   5   3     2.969792224403   107.53693411   193.28055079
 C      9   8   6     2.909727066714   100.89714680   182.60433060
 C      3   2   9     2.935224001137    64.95934283   211.10144625
 C      4   3   2     2.937041610841   111.51370762   163.28190380
 C     20   9   8     2.928425185834   104.48939202    40.03612249
 C      7   5   3     2.923945761175   112.83704701    74.48436672
 C      1   2   9     2.743462127317    72.53002341    49.40122457
 C     25   1   2     2.879951743075   110.27554494   287.35249700
 C      2   1  25     2.727361899149    40.03600388    92.01160845
 C     17   8   6     2.867333633764   117.74993585   282.09030209
 C     18  10   7     2.926634408185   107.34165465   151.12650715
 C     18  10   7     2.912735251327   113.74561596   269.53762218
 C     28  17   8     2.853809847050   118.25143401   312.81249680
 C     28  17   8     2.534421086350   120.78410363   135.84552328
 H      5   3   2     2.068785255454   105.07460888   100.15482813
 H      6   4   3     2.068252047059   107.13276719    55.40584603
 H      8   6   4     2.070972349999   107.78715115    56.92060638
 H     10   7   5     2.077834180921   104.09048983   302.34908612
 H     11   4   3     2.069158348012   108.94090326    69.93112116
 H     11   4   3     2.063062058670   110.52463444   314.12788235
 H     12   3   2     2.071053067151   109.57584652    19.02308878
 H     12   3   2     2.067589054893   110.07231498   262.27388678
 H     13   5   3     2.068900999830   110.32792680   293.11382744
 H     13   5   3     2.068396088620   109.96839964   176.68571922
 H     14   6   4     2.071362805603   110.17965907   292.25276934
 H     14   6   4     2.066458721487   109.33972800   176.04692831
 H     15   9   8     2.073235730553   111.30581302   181.25810595
 H     15   9   8     2.070320922344   108.33962094    65.56451790
 H     16  12   3     2.069651842996   108.11100785   178.77858401
 H     16  12   3     2.067409612240   110.73727923   294.26632306
 H     17   8   6     2.069381934132   109.07059158    44.15506452
 H     19   7   5     2.067753964442   110.13387479    11.54801665
 H     19   7   5     2.067723998145   109.20318984   255.73841498
 H     20   9   8     2.070701108116   109.05203940   282.06160756
 H     20   9   8     2.065523600357   113.04281082   162.77282227
 H     21   3   2     2.058264080730   111.04839585   206.44394139
 H     21   3   2     2.062133251607   111.23319887   324.69595815
 H     21   3   2     2.060336211062   113.56703664    85.91958544
 H     22   4   3     2.062647940368   110.92182404   182.37735728
 H     22   4   3     2.064340278869   110.91190624   300.37272635
 H     22   4   3     2.058541890169   113.98011544    62.00166883
 H     23  20   9     2.066345241021   111.49209672    99.00150710
 H     23  20   9     2.065056802185   111.19481794   217.69010730
 H     24   7   5     2.059327335967   110.31358853   166.70420200
 H     24   7   5     2.060324429924   113.43808753   287.53786919
 H     24   7   5     2.067147730651   110.40489766    48.29159921
 H     25   1   2     2.073468469704   106.67115187   168.80062297
 H     26  25   1     2.073920774030   109.50692385   299.25263974
 H     26  25   1     2.070600870904   107.65883100   184.58064720
 H     27   2   1     2.063205759260   108.37643842    23.99414681
 H     27   2   1     2.061389547627   104.75949184   138.52807521
 H     29  18  10     2.070045405184   110.55853804   176.05721498
 H     29  18  10     2.069942594019   111.47020365   296.13555637
 H     29  18  10     2.066418151415   111.14333461    56.39462746
 H     30  18  10     2.069070871606   110.14440418   178.68125546
 H     30  18  10     2.066177816403   110.29776315   296.98094911
 H     30  18  10     2.059816192341   112.93111805    58.08209615
 H      1   2  27     1.825722465574   122.18954553   352.15157399
 H      2   1  76     1.823531726917    73.61115856   200.27082923
 H     31  28  17     2.070207665833   111.12222838    69.51638761
 H     31  28  17     2.065605365680   111.05460629   189.78191239
 H     31  28  17     2.071275467139   111.57637141   310.73261961
 H     32  28  17     2.053374913609   121.61169948   176.60421134
 H     32  28  17     2.053734632482   121.45020377   356.30481144
 H      2   1  76     9.908053404456   167.83508180    91.28433021
 C     83   2  77     2.067928357401    72.09949863    53.75978442
 H     84  83   2     2.070976275392   108.47468754   109.36702743
 H     84  83   2     2.067891243997   108.33491577   226.71585224
 C     84  83   2     2.878443968898   110.81877779   348.02384421
 H     87  84  83     2.079147569722   108.73914463   300.87437930
 O     87  84  83     2.718308071329   107.24528794    58.14243452
 H     89  87  84     1.844026698779   108.76197303   187.26883913
 C     87  84  83     2.889624614080   112.30680356   180.51743190
 H     91  87  84     2.070691967423   110.45426221   301.37252322
 H     91  87  84     2.070013802367   110.55888770    61.38985508
 H     91  87  84     2.068886731687   110.87450563   181.14949609
 H     75  30  18     9.275041106185   124.35115772   127.92248604
 C     95  75  30     2.068009065726    99.63449020   296.63520044
 H     96  95  75     2.070940555977   108.44543325   103.06637416
 H     96  95  75     2.067827148110   108.33395176   220.39966444
 C     96  95  75     2.878801057655   110.74709011   341.75782669
 H     99  96  95     2.078763649278   108.71622937   300.93662103
 O     99  96  95     2.718138399260   107.14044047    58.14036887
 H    101  99  96     1.843823032409   109.02086866   189.35160990
 C     99  96  95     2.888683302220   112.30590910   180.50413724
 H    103  99  96     2.070665797510   110.44358576   301.17563331
 H    103  99  96     2.070123474435   110.56594038    61.19637052
 H    103  99  96     2.069382155361   110.95882205   180.95516090

---------------------
BASIS SET INFORMATION
---------------------
There are 3 groups of distinct atoms

 Group   1 Type O   : 11s5p1d contracted to 4s3p1d pattern {6311/311/1}
 Group   2 Type C   : 11s5p1d contracted to 4s3p1d pattern {6311/311/1}
 Group   3 Type H   : 5s1p contracted to 3s1p pattern {311/1}

Atom   0O    basis set group =>   1
Atom   1O    basis set group =>   1
Atom   2C    basis set group =>   2
Atom   3C    basis set group =>   2
Atom   4C    basis set group =>   2
Atom   5C    basis set group =>   2
Atom   6C    basis set group =>   2
Atom   7C    basis set group =>   2
Atom   8C    basis set group =>   2
Atom   9C    basis set group =>   2
Atom  10C    basis set group =>   2
Atom  11C    basis set group =>   2
Atom  12C    basis set group =>   2
Atom  13C    basis set group =>   2
Atom  14C    basis set group =>   2
Atom  15C    basis set group =>   2
Atom  16C    basis set group =>   2
Atom  17C    basis set group =>   2
Atom  18C    basis set group =>   2
Atom  19C    basis set group =>   2
Atom  20C    basis set group =>   2
Atom  21C    basis set group =>   2
Atom  22C    basis set group =>   2
Atom  23C    basis set group =>   2
Atom  24C    basis set group =>   2
Atom  25C    basis set group =>   2
Atom  26C    basis set group =>   2
Atom  27C    basis set group =>   2
Atom  28C    basis set group =>   2
Atom  29C    basis set group =>   2
Atom  30C    basis set group =>   2
Atom  31C    basis set group =>   2
Atom  32H    basis set group =>   3
Atom  33H    basis set group =>   3
Atom  34H    basis set group =>   3
Atom  35H    basis set group =>   3
Atom  36H    basis set group =>   3
Atom  37H    basis set group =>   3
Atom  38H    basis set group =>   3
Atom  39H    basis set group =>   3
Atom  40H    basis set group =>   3
Atom  41H    basis set group =>   3
Atom  42H    basis set group =>   3
Atom  43H    basis set group =>   3
Atom  44H    basis set group =>   3
Atom  45H    basis set group =>   3
Atom  46H    basis set group =>   3
Atom  47H    basis set group =>   3
Atom  48H    basis set group =>   3
Atom  49H    basis set group =>   3
Atom  50H    basis set group =>   3
Atom  51H    basis set group =>   3
Atom  52H    basis set group =>   3
Atom  53H    basis set group =>   3
Atom  54H    basis set group =>   3
Atom  55H    basis set group =>   3
Atom  56H    basis set group =>   3
Atom  57H    basis set group =>   3
Atom  58H    basis set group =>   3
Atom  59H    basis set group =>   3
Atom  60H    basis set group =>   3
Atom  61H    basis set group =>   3
Atom  62H    basis set group =>   3
Atom  63H    basis set group =>   3
Atom  64H    basis set group =>   3
Atom  65H    basis set group =>   3
Atom  66H    basis set group =>   3
Atom  67H    basis set group =>   3
Atom  68H    basis set group =>   3
Atom  69H    basis set group =>   3
Atom  70H    basis set group =>   3
Atom  71H    basis set group =>   3
Atom  72H    basis set group =>   3
Atom  73H    basis set group =>   3
Atom  74H    basis set group =>   3
Atom  75H    basis set group =>   3
Atom  76H    basis set group =>   3
Atom  77H    basis set group =>   3
Atom  78H    basis set group =>   3
Atom  79H    basis set group =>   3
Atom  80H    basis set group =>   3
Atom  81H    basis set group =>   3
Atom  82H    basis set group =>   3
Atom  83C    basis set group =>   2
Atom  84H    basis set group =>   3
Atom  85H    basis set group =>   3
Atom  86C    basis set group =>   2
Atom  87H    basis set group =>   3
Atom  88O    basis set group =>   1
Atom  89H    basis set group =>   3
Atom  90C    basis set group =>   2
Atom  91H    basis set group =>   3
Atom  92H    basis set group =>   3
Atom  93H    basis set group =>   3
Atom  94H    basis set group =>   3
Atom  95C    basis set group =>   2
Atom  96H    basis set group =>   3
Atom  97H    basis set group =>   3
Atom  98C    basis set group =>   2
Atom  99H    basis set group =>   3
Atom 100O    basis set group =>   1
Atom 101H    basis set group =>   3
Atom 102C    basis set group =>   2
Atom 103H    basis set group =>   3
Atom 104H    basis set group =>   3
Atom 105H    basis set group =>   3
---------------------------------
AUXILIARY/J BASIS SET INFORMATION
---------------------------------
There are 3 groups of distinct atoms

 Group   1 Type O   : 12s5p4d2f1g contracted to 6s4p3d1f1g pattern {711111/2111/211/2/1}
 Group   2 Type C   : 12s5p4d2f1g contracted to 6s4p3d1f1g pattern {711111/2111/211/2/1}
 Group   3 Type H   : 5s2p1d contracted to 3s1p1d pattern {311/2/1}

Atom   0O    basis set group =>   1
Atom   1O    basis set group =>   1
Atom   2C    basis set group =>   2
Atom   3C    basis set group =>   2
Atom   4C    basis set group =>   2
Atom   5C    basis set group =>   2
Atom   6C    basis set group =>   2
Atom   7C    basis set group =>   2
Atom   8C    basis set group =>   2
Atom   9C    basis set group =>   2
Atom  10C    basis set group =>   2
Atom  11C    basis set group =>   2
Atom  12C    basis set group =>   2
Atom  13C    basis set group =>   2
Atom  14C    basis set group =>   2
Atom  15C    basis set group =>   2
Atom  16C    basis set group =>   2
Atom  17C    basis set group =>   2
Atom  18C    basis set group =>   2
Atom  19C    basis set group =>   2
Atom  20C    basis set group =>   2
Atom  21C    basis set group =>   2
Atom  22C    basis set group =>   2
Atom  23C    basis set group =>   2
Atom  24C    basis set group =>   2
Atom  25C    basis set group =>   2
Atom  26C    basis set group =>   2
Atom  27C    basis set group =>   2
Atom  28C    basis set group =>   2
Atom  29C    basis set group =>   2
Atom  30C    basis set group =>   2
Atom  31C    basis set group =>   2
Atom  32H    basis set group =>   3
Atom  33H    basis set group =>   3
Atom  34H    basis set group =>   3
Atom  35H    basis set group =>   3
Atom  36H    basis set group =>   3
Atom  37H    basis set group =>   3
Atom  38H    basis set group =>   3
Atom  39H    basis set group =>   3
Atom  40H    basis set group =>   3
Atom  41H    basis set group =>   3
Atom  42H    basis set group =>   3
Atom  43H    basis set group =>   3
Atom  44H    basis set group =>   3
Atom  45H    basis set group =>   3
Atom  46H    basis set group =>   3
Atom  47H    basis set group =>   3
Atom  48H    basis set group =>   3
Atom  49H    basis set group =>   3
Atom  50H    basis set group =>   3
Atom  51H    basis set group =>   3
Atom  52H    basis set group =>   3
Atom  53H    basis set group =>   3
Atom  54H    basis set group =>   3
Atom  55H    basis set group =>   3
Atom  56H    basis set group =>   3
Atom  57H    basis set group =>   3
Atom  58H    basis set group =>   3
Atom  59H    basis set group =>   3
Atom  60H    basis set group =>   3
Atom  61H    basis set group =>   3
Atom  62H    basis set group =>   3
Atom  63H    basis set group =>   3
Atom  64H    basis set group =>   3
Atom  65H    basis set group =>   3
Atom  66H    basis set group =>   3
Atom  67H    basis set group =>   3
Atom  68H    basis set group =>   3
Atom  69H    basis set group =>   3
Atom  70H    basis set group =>   3
Atom  71H    basis set group =>   3
Atom  72H    basis set group =>   3
Atom  73H    basis set group =>   3
Atom  74H    basis set group =>   3
Atom  75H    basis set group =>   3
Atom  76H    basis set group =>   3
Atom  77H    basis set group =>   3
Atom  78H    basis set group =>   3
Atom  79H    basis set group =>   3
Atom  80H    basis set group =>   3
Atom  81H    basis set group =>   3
Atom  82H    basis set group =>   3
Atom  83C    basis set group =>   2
Atom  84H    basis set group =>   3
Atom  85H    basis set group =>   3
Atom  86C    basis set group =>   2
Atom  87H    basis set group =>   3
Atom  88O    basis set group =>   1
Atom  89H    basis set group =>   3
Atom  90C    basis set group =>   2
Atom  91H    basis set group =>   3
Atom  92H    basis set group =>   3
Atom  93H    basis set group =>   3
Atom  94H    basis set group =>   3
Atom  95C    basis set group =>   2
Atom  96H    basis set group =>   3
Atom  97H    basis set group =>   3
Atom  98C    basis set group =>   2
Atom  99H    basis set group =>   3
Atom 100O    basis set group =>   1
Atom 101H    basis set group =>   3
Atom 102C    basis set group =>   2
Atom 103H    basis set group =>   3
Atom 104H    basis set group =>   3
Atom 105H    basis set group =>   3

Checking for AutoStart:
The File: betulin_isoprop_freq3.gbw exists
Trying to determine its content:
     ... Fine, the file contains calculation information
     ... Fine, the calculation information was read
     ... Fine, the file contains a basis set
     ... Fine, the basis set was read
     ... Fine, the file contains a geometry
     ... Fine, the geometry was read
     ... Fine, the file contains a set of orbitals
     ... Fine, the orbitals can be read
     => possible old guess file was deleted
     => GBW file was renamed to GES file
     => GES file is set as startup file
     => Guess is set to MORead
     ... now leaving AutoStart



           ************************************************************
           *        Program running with 8 parallel MPI-processes     *
           *              working on a common directory               *
           ************************************************************
------------------------------------------------------------------------------
                           ORCA GTO INTEGRAL CALCULATION
                           -- RI-GTO INTEGRALS CHOSEN --
------------------------------------------------------------------------------
------------------------------------------------------------------------------
                   ___                                                        
                  /   \      - P O W E R E D   B Y -                         
                 /     \                                                     
                 |  |  |   _    _      __       _____    __    __             
                 |  |  |  | |  | |    /  \     |  _  \  |  |  /  |          
                  \  \/   | |  | |   /    \    | | | |  |  | /  /          
                 / \  \   | |__| |  /  /\  \   | |_| |  |  |/  /          
                |  |  |   |  __  | /  /__\  \  |    /   |      \           
                |  |  |   | |  | | |   __   |  |    \   |  |\   \          
                \     /   | |  | | |  |  |  |  | |\  \  |  | \   \       
                 \___/    |_|  |_| |__|  |__|  |_| \__\ |__|  \__/        
                                                                              
                      - O R C A' S   B I G   F R I E N D -                    
                                      &                                       
                       - I N T E G R A L  F E E D E R -                       
                                                                              
 v1 FN, 2020, v2 2021                                                         
------------------------------------------------------------------------------


Reading SHARK input file betulin_isoprop_freq3.SHARKINP.tmp ... ok
----------------------
SHARK INTEGRAL PACKAGE
----------------------

Number of atoms                             ...    106
Number of basis functions                   ...   1116
Number of shells                            ...    584
Maximum angular momentum                    ...      2
Integral batch strategy                     ... SHARK/LIBINT Hybrid
RI-J (if used) integral strategy            ... SPLIT-RIJ (Revised 2003 algorithm where possible)
Printlevel                                  ...      1
Contraction scheme used                     ... SEGMENTED contraction
Coulomb Range Separation                    ... NOT USED
Exchange Range Separation                   ... NOT USED
Finite Nucleus Model                        ... NOT USED
Auxiliary Coulomb fitting basis             ... AVAILABLE
   # of basis functions in Aux-J            ...   2686
   # of shells in Aux-J                     ...    930
   Maximum angular momentum in Aux-J        ...      4
Auxiliary J/K fitting basis                 ... NOT available
Auxiliary Correlation fitting basis         ... NOT available
Auxiliary 'external' fitting basis          ... NOT available
Integral threshold                          ...     1.000000e-10
Primitive cut-off                           ...     1.000000e-11
Primitive pair pre-selection threshold      ...     1.000000e-11

Calculating pre-screening integrals         ... done (  0.0 sec) Dimension = 584
Organizing shell pair data                  ... done (  0.4 sec)
Shell pair information
Total number of shell pairs                 ...    170820
Shell pairs after pre-screening             ...    111599
Total number of primitive shell pairs       ...    580464
Primitive shell pairs kept                  ...    238707
          la=0 lb=0:  44841 shell pairs
          la=1 lb=0:  43908 shell pairs
          la=1 lb=1:  10761 shell pairs
          la=2 lb=0:   8078 shell pairs
          la=2 lb=1:   3710 shell pairs
          la=2 lb=2:    301 shell pairs

Calculating one electron integrals          ... done (  0.1 sec)
Calculating RI/J V-Matrix + Cholesky decomp.... done (  0.2 sec)
Calculating Nuclear repulsion               ... done (  0.0 sec) ENN=   5109.317988810738 Eh

SHARK setup successfully completed in   1.1 seconds

Maximum memory used throughout the entire GTOINT-calculation: 149.5 MB


           ************************************************************
           *        Program running with 8 parallel MPI-processes     *
           *              working on a common directory               *
           ************************************************************
-------------------------------------------------------------------------------
                                 ORCA SCF
-------------------------------------------------------------------------------

------------
SCF SETTINGS
------------
Hamiltonian:
 Density Functional     Method          .... DFT(GTOs)
 Exchange Functional    Exchange        .... B88
   X-Alpha parameter    XAlpha          ....  0.666667
   Becke's b parameter  XBeta           ....  0.004200
 Correlation Functional Correlation     .... LYP
 LDA part of GGA corr.  LDAOpt          .... VWN-5
 Gradients option       PostSCFGGA      .... off
 Hybrid DFT is turned on
   Fraction HF Exchange ScalHFX         ....  0.200000
   Scaling of DF-GGA-X  ScalDFX         ....  0.720000
   Scaling of DF-GGA-C  ScalDFC         ....  0.810000
   Scaling of DF-LDA-C  ScalLDAC        ....  1.000000
   Perturbative correction              ....  0.000000
   Density functional embedding theory  .... OFF
   NL short-range parameter             ....  4.800000
 RI-approximation to the Coulomb term is turned on
   Number of AuxJ basis functions       .... 2686
   RIJ-COSX (HFX calculated with COS-X)).... on


General Settings:
 Integral files         IntName         .... betulin_isoprop_freq3
 Hartree-Fock type      HFTyp           .... RHF
 Total Charge           Charge          ....    0
 Multiplicity           Mult            ....    1
 Number of Electrons    NEL             ....  314
 Basis Dimension        Dim             .... 1116
 Nuclear Repulsion      ENuc            ....   5109.3179888107 Eh

Convergence Acceleration:
 DIIS                   CNVDIIS         .... on
   Start iteration      DIISMaxIt       ....    12
   Startup error        DIISStart       ....  0.200000
   # of expansion vecs  DIISMaxEq       ....     5
   Bias factor          DIISBfac        ....   1.050
   Max. coefficient     DIISMaxC        ....  10.000
 Trust-Rad. Augm. Hess. CNVTRAH         .... auto
   Auto Start mean grad. ratio tolernc. ....  1.125000
   Auto Start start iteration           ....     1
   Auto Start num. interpolation iter.  ....    10
   Max. Number of Micro iterations      ....    16
   Max. Number of Macro iterations      .... Maxiter - #DIIS iter
   Number of Davidson start vectors     ....     2
   Converg. threshold I  (grad. norm)   ....   5.000e-05
   Converg. threshold II (energy diff.) ....   1.000e-06
   Grad. Scal. Fac. for Micro threshold ....   0.100
   Minimum threshold for Micro iter.    ....   0.010
   NR start threshold (gradient norm)   ....   0.001
   Initial trust radius                 ....   0.400
   Minimum AH scaling param. (alpha)    ....   1.000
   Maximum AH scaling param. (alpha)    .... 1000.000
   Orbital update algorithm             .... Taylor
   White noise on init. David. guess    .... on
   Maximum white noise                  ....   0.010
   Quad. conv. algorithm                .... NR
 SOSCF                  CNVSOSCF        .... on
   Start iteration      SOSCFMaxIt      ....   150
   Startup grad/error   SOSCFStart      ....  0.003300
 Level Shifting         CNVShift        .... on
   Level shift para.    LevelShift      ....    0.2500
   Turn off err/grad.   ShiftErr        ....    0.0010
 Zerner damping         CNVZerner       .... off
 Static damping         CNVDamp         .... on
   Fraction old density DampFac         ....    0.7000
   Max. Damping (<1)    DampMax         ....    0.9800
   Min. Damping (>=0)   DampMin         ....    0.0000
   Turn off err/grad.   DampErr         ....    0.1000
 Fernandez-Rico         CNVRico         .... off

SCF Procedure:
 Maximum # iterations   MaxIter         ....   125
 SCF integral mode      SCFMode         .... Direct
   Integral package                     .... SHARK and LIBINT hybrid scheme
 Reset frequency        DirectResetFreq ....    20
 Integral Threshold     Thresh          ....  1.000e-10 Eh
 Primitive CutOff       TCut            ....  1.000e-11 Eh

Convergence Tolerance:
 Convergence Check Mode ConvCheckMode   .... Total+1el-Energy
 Convergence forced     ConvForced      .... 0
 Energy Change          TolE            ....  1.000e-06 Eh
 1-El. energy change                    ....  1.000e-03 Eh
 Orbital Gradient       TolG            ....  5.000e-05
 Orbital Rotation angle TolX            ....  5.000e-05
 DIIS Error             TolErr          ....  1.000e-06


Diagonalization of the overlap matrix:
Smallest eigenvalue                        ... 5.322e-08
Time for diagonalization                   ...    0.073 sec
Threshold for overlap eigenvalues          ... 1.000e-08
Number of eigenvalues below threshold      ... 0
Time for construction of square roots      ...    0.061 sec
Total time needed                          ...    0.138 sec

---------------------
INITIAL GUESS: MOREAD
---------------------
Guess MOs are being read from file: betulin_isoprop_freq3.ges
Input Geometry matches current geometry (good)
Atom 0: N(Shells)= 8 and 9 - projection required
Input basis set needs projection
NBasis(read)= 1514
NBasis(calc)= 1116
Basis set overlap was calculated
Using GuessMode=FMatrix for the initial guess
C*T matrix was formed
Effective Fockian was calculated
Effective Fockian was diagonalized
Initial density was built
                      ------------------
                      INITIAL GUESS DONE (   0.5 sec)
                      ------------------
-------------------
DFT GRID GENERATION
-------------------

General Integration Accuracy     IntAcc      ... 4.388
Radial Grid Type                 RadialGrid  ... OptM3 with GC (2021)
Angular Grid (max. ang.)         AngularGrid ... 4 (Lebedev-302)
Angular grid pruning method      GridPruning ... 4 (adaptive)
Weight generation scheme         WeightScheme... Becke
Basis function cutoff            BFCut       ... 1.0000e-10
Integration weight cutoff        WCut        ... 1.0000e-14
Angular grids for H and He will be reduced by one unit
Partially contracted basis set               ... off
Rotationally invariant grid construction     ... off

Total number of grid points                  ...   457313
Total number of batches                      ...     7199
Average number of points per batch           ...       63
Average number of grid points per atom       ...     4314
Time for grid setup =    2.382 sec

--------------------
COSX GRID GENERATION
--------------------

GRIDX 1
-------
General Integration Accuracy     IntAcc      ... 3.816
Radial Grid Type                 RadialGrid  ... OptM3 with GC (2021)
Angular Grid (max. ang.)         AngularGrid ... 1 (Lebedev-50)
Angular grid pruning method      GridPruning ... 4 (adaptive)
Weight generation scheme         WeightScheme... Becke
Basis function cutoff            BFCut       ... 1.0000e-10
Integration weight cutoff        WCut        ... 1.0000e-14
Angular grids for H and He will be reduced by one unit
Partially contracted basis set               ... on
Rotationally invariant grid construction     ... off

Total number of grid points                  ...    56865
Total number of batches                      ...      942
Average number of points per batch           ...       60
Average number of grid points per atom       ...      536
UseSFitting                                  ... on

GRIDX 2
-------
General Integration Accuracy     IntAcc      ... 4.020
Radial Grid Type                 RadialGrid  ... OptM3 with GC (2021)
Angular Grid (max. ang.)         AngularGrid ... 2 (Lebedev-110)
Angular grid pruning method      GridPruning ... 4 (adaptive)
Weight generation scheme         WeightScheme... Becke
Basis function cutoff            BFCut       ... 1.0000e-10
Integration weight cutoff        WCut        ... 1.0000e-14
Angular grids for H and He will be reduced by one unit
Partially contracted basis set               ... on
Rotationally invariant grid construction     ... off

Total number of grid points                  ...   124629
Total number of batches                      ...     1997
Average number of points per batch           ...       62
Average number of grid points per atom       ...     1176
UseSFitting                                  ... on

GRIDX 3
-------
General Integration Accuracy     IntAcc      ... 4.338
Radial Grid Type                 RadialGrid  ... OptM3 with GC (2021)
Angular Grid (max. ang.)         AngularGrid ... 3 (Lebedev-194)
Angular grid pruning method      GridPruning ... 4 (adaptive)
Weight generation scheme         WeightScheme... Becke
Basis function cutoff            BFCut       ... 1.0000e-10
Integration weight cutoff        WCut        ... 1.0000e-14
Angular grids for H and He will be reduced by one unit
Partially contracted basis set               ... on
Rotationally invariant grid construction     ... off

Total number of grid points                  ...   275896
Total number of batches                      ...     4371
Average number of points per batch           ...       63
Average number of grid points per atom       ...     2603
UseSFitting                                  ... on

Time for X-Grid setup             =    3.372 sec

--------------
SCF ITERATIONS
--------------
ITER       Energy         Delta-E        Max-DP      RMS-DP      [F,P]     Damp
               ***  Starting incremental Fock matrix formation  ***
  0  -1711.4110676473   0.000000000000 1.46741486  0.00565467  0.0057105 0.7000
                      *** Initiating the SOSCF procedure ***
                      *** Re-Reading the Fockian *** 
                      *** Removing any level shift *** 
ITER      Energy       Delta-E        Grad      Rot      Max-DP    RMS-DP
  1  -1711.41131207  -0.0002444258  0.000162  0.000162 33.022641  0.104104
               *** Restarting incremental Fock matrix formation ***
  2  -1711.41186393  -0.0005518618  0.000286  0.000281 29.277434  0.087422
  3  -1711.41184644   0.0000174997  0.000512  0.000223 42.166150  0.134232
  4  -1711.41187303  -0.0000265970  0.000082  0.000095 63.912748  0.165959
  5  -1711.41186483   0.0000082028  0.000076  0.000122 62.128020  0.159082
  6  -1711.41185092   0.0000139143  0.000098  0.000095 58.683121  0.138182
  7  -1711.41184004   0.0000108773  0.000106  0.000103 79.992724  0.201819
  8  -1711.41184422  -0.0000041817  0.000111  0.000106 81.396829  0.253540
  9  -1711.41185082  -0.0000066013  0.000095  0.000071 35.414861  0.108006
 10  -1711.41185655  -0.0000057296  0.000099  0.000112 34.886482  0.102457
 11  -1711.41184845   0.0000080990  0.000097  0.000106 77.086107  0.191056
 12  -1711.41183053   0.0000179253  0.000096  0.000195 176.909045  0.448782
 13  -1711.41178525   0.0000452777  0.000114  0.000089 79.085765  0.180948
 14  -1711.41180991  -0.0000246592  0.000073  0.000187 141.688128  0.390414
 15  -1711.41183587  -0.0000259578  0.000112  0.000084 27.237522  0.072982
 16  -1711.41184159  -0.0000057263  0.000171  0.000393 296.280634  0.686397
 17  -1711.41174411   0.0000974808  0.000328  0.000268 221.819255  0.509500
 18  -1711.41182876  -0.0000846483  0.000068  0.000190 107.928277  0.292359
 19  -1711.41185017  -0.0000214089  0.000138  0.000082 54.016814  0.135612

 WARNING: the maximum gradient error descreased on average only by a factor   1.0
          during the last 20 iterations

                      *** Initiating the TRAH-SCF procedure ***

              ***Rediagonalizing the Fockian in SOSCF/NRSCF***

TRAH GRIDX
----------

General Integration Accuracy     IntAcc      ... 3.067
Radial Grid Type                 RadialGrid  ... OptM3 with GC (2021)
Angular Grid (max. ang.)         AngularGrid ... 1 (Lebedev-50)
Angular grid pruning method      GridPruning ... 4 (adaptive)
Weight generation scheme         WeightScheme... Becke
Basis function cutoff            BFCut       ... 1.0000e-10
Integration weight cutoff        WCut        ... 1.0000e-14
Angular grids for H and He will be reduced by one unit
Partially contracted basis set               ... on
Rotationally invariant grid construction     ... off

Total number of grid points                  ...    29667
Total number of batches                      ...      518
Average number of points per batch           ...       57
Average number of grid points per atom       ...      280


TRAH GRID
---------

General Integration Accuracy     IntAcc      ... 3.467
Radial Grid Type                 RadialGrid  ... OptM3 with GC (2021)
Angular Grid (max. ang.)         AngularGrid ... 1 (Lebedev-50)
Angular grid pruning method      GridPruning ... 4 (adaptive)
Weight generation scheme         WeightScheme... Becke
Basis function cutoff            BFCut       ... 1.0000e-10
Integration weight cutoff        WCut        ... 1.0000e-14
Angular grids for H and He will be reduced by one unit
Partially contracted basis set               ... off
Rotationally invariant grid construction     ... off

Total number of grid points                  ...    61098
Total number of batches                      ...     1008
Average number of points per batch           ...       60
Average number of grid points per atom       ...      576

 --------------------------------------------------------------------------------------------
   Iter.        energy            ||Error||_2        Shift      TRadius  Mac/Mic        Rej.
 --------------------------------------------------------------------------------------------
    0      -1711.411842290986     1.983219e-02                     0.400 (TRAH MAcro)   No
    0     dE    -2.419612e-05     2.248619e-02    -4.8392e-05      0.002 (TRAH MIcro)
    0     dE    -4.160041e-05     3.848960e-04    -8.3199e-05      0.005 (TRAH MIcro)
    1      -1711.411877456888     3.869119e-04                           (NR   MAcro)
    1     dE    -5.432662e-09     1.726261e-04                           (NR   MIcro)
    1     dE    -6.673471e-09     2.778334e-05                           (NR   MIcro)
    1     dE    -6.717267e-09     7.535827e-06                           (NR   MIcro)
    1     dE    -6.720727e-09     2.364279e-06                           (NR   MIcro)
    2      -1711.411877435843     2.690464e-06                           (NR   MAcro)

               *****************************************************
               *                     SUCCESS                       *
               *           SCF CONVERGED AFTER  29 CYCLES          *
               *****************************************************

Old exchange energy                            =    -48.668887984 Eh
New exchange energy                            =    -48.668947928 Eh
Exchange energy change after final integration =     -0.000059945 Eh
Total energy after final integration           =  -1711.411937380 Eh
Final COS-X integration done in                =    51.905 sec

----------------
TOTAL SCF ENERGY
----------------

Total Energy       :        -1711.41193738 Eh          -46569.88638 eV

Components:
Nuclear Repulsion  :         5109.31798881 Eh          139031.61071 eV
Electronic Energy  :        -6820.72992619 Eh         -185601.49709 eV
One Electron Energy:       -12492.73374652 Eh         -339944.56769 eV
Two Electron Energy:         5672.00382033 Eh          154343.07060 eV
Max COSX asymmetry :            0.00007509 Eh               0.00204 eV

Virial components:
Potential Energy   :        -3411.98982854 Eh          -92844.96338 eV
Kinetic Energy     :         1700.57789116 Eh           46275.07700 eV
Virial Ratio       :            2.00637080


DFT components:
N(Alpha)           :      157.000067366107 electrons
N(Beta)            :      157.000067366107 electrons
N(Total)           :      314.000134732213 electrons
E(X)               :     -192.890057081936 Eh       
E(C)               :      -12.221935110924 Eh       
E(XC)              :     -205.111992192861 Eh       
DFET-embed. en.    :        0.000000000000 Eh       

---------------
SCF CONVERGENCE
---------------

  Last Energy change         ...    2.1045e-08  Tolerance :   1.0000e-06
  Last Orbital Gradient      ...    2.6905e-06  Tolerance :   5.0000e-05
  Last Orbital Rotation      ...    5.4918e-05

             **** THE GBW FILE WAS UPDATED (betulin_isoprop_freq3.gbw) ****
             **** DENSITY betulin_isoprop_freq3.scfp WAS UPDATED ****
             **** ENERGY FILE WAS UPDATED (betulin_isoprop_freq3.en.tmp) ****
             **** THE GBW FILE WAS UPDATED (betulin_isoprop_freq3.gbw) ****
             **** DENSITY betulin_isoprop_freq3.scfp WAS UPDATED ****
----------------
ORBITAL ENERGIES
----------------

  NO   OCC          E(Eh)            E(eV) 
   0   2.0000     -19.172612      -521.7133 
   1   2.0000     -19.170694      -521.6611 
   2   2.0000     -19.119760      -520.2751 
   3   2.0000     -19.115763      -520.1664 
   4   2.0000     -10.241832      -278.6944 
   5   2.0000     -10.235360      -278.5183 
   6   2.0000     -10.223196      -278.1873 
   7   2.0000     -10.219620      -278.0900 
   8   2.0000     -10.199764      -277.5497 
   9   2.0000     -10.199556      -277.5440 
  10   2.0000     -10.196603      -277.4637 
  11   2.0000     -10.194553      -277.4079 
  12   2.0000     -10.194546      -277.4077 
  13   2.0000     -10.192001      -277.3385 
  14   2.0000     -10.190223      -277.2901 
  15   2.0000     -10.188272      -277.2370 
  16   2.0000     -10.184452      -277.1330 
  17   2.0000     -10.184007      -277.1209 
  18   2.0000     -10.182889      -277.0905 
  19   2.0000     -10.182495      -277.0798 
  20   2.0000     -10.181573      -277.0547 
  21   2.0000     -10.180414      -277.0232 
  22   2.0000     -10.180400      -277.0228 
  23   2.0000     -10.179665      -277.0028 
  24   2.0000     -10.176396      -276.9138 
  25   2.0000     -10.175167      -276.8804 
  26   2.0000     -10.175072      -276.8778 
  27   2.0000     -10.174559      -276.8638 
  28   2.0000     -10.173224      -276.8275 
  29   2.0000     -10.172435      -276.8060 
  30   2.0000     -10.171993      -276.7940 
  31   2.0000     -10.171417      -276.7783 
  32   2.0000     -10.168783      -276.7066 
  33   2.0000     -10.168451      -276.6976 
  34   2.0000     -10.168063      -276.6871 
  35   2.0000     -10.163878      -276.5732 
  36   2.0000     -10.161896      -276.5192 
  37   2.0000     -10.160587      -276.4836 
  38   2.0000     -10.158404      -276.4242 
  39   2.0000     -10.157641      -276.4035 
  40   2.0000      -1.040572       -28.3154 
  41   2.0000      -1.039490       -28.2859 
  42   2.0000      -0.992031       -26.9945 
  43   2.0000      -0.988192       -26.8901 
  44   2.0000      -0.874661       -23.8007 
  45   2.0000      -0.859958       -23.4006 
  46   2.0000      -0.836757       -22.7693 
  47   2.0000      -0.811169       -22.0730 
  48   2.0000      -0.796450       -21.6725 
  49   2.0000      -0.794626       -21.6229 
  50   2.0000      -0.778621       -21.1874 
  51   2.0000      -0.761723       -20.7275 
  52   2.0000      -0.758308       -20.6346 
  53   2.0000      -0.757777       -20.6202 
  54   2.0000      -0.746894       -20.3240 
  55   2.0000      -0.737087       -20.0571 
  56   2.0000      -0.721145       -19.6234 
  57   2.0000      -0.708888       -19.2898 
  58   2.0000      -0.692161       -18.8347 
  59   2.0000      -0.687837       -18.7170 
  60   2.0000      -0.683378       -18.5957 
  61   2.0000      -0.682602       -18.5746 
  62   2.0000      -0.678892       -18.4736 
  63   2.0000      -0.677439       -18.4341 
  64   2.0000      -0.675232       -18.3740 
  65   2.0000      -0.674319       -18.3491 
  66   2.0000      -0.660079       -17.9616 
  67   2.0000      -0.626779       -17.0555 
  68   2.0000      -0.618971       -16.8430 
  69   2.0000      -0.607427       -16.5289 
  70   2.0000      -0.590368       -16.0647 
  71   2.0000      -0.582139       -15.8408 
  72   2.0000      -0.573796       -15.6138 
  73   2.0000      -0.570532       -15.5250 
  74   2.0000      -0.560277       -15.2459 
  75   2.0000      -0.556723       -15.1492 
  76   2.0000      -0.544306       -14.8113 
  77   2.0000      -0.528889       -14.3918 
  78   2.0000      -0.523441       -14.2435 
  79   2.0000      -0.515602       -14.0303 
  80   2.0000      -0.506288       -13.7768 
  81   2.0000      -0.503816       -13.7095 
  82   2.0000      -0.501477       -13.6459 
  83   2.0000      -0.493387       -13.4257 
  84   2.0000      -0.489106       -13.3093 
  85   2.0000      -0.482064       -13.1176 
  86   2.0000      -0.479129       -13.0378 
  87   2.0000      -0.474939       -12.9238 
  88   2.0000      -0.468770       -12.7559 
  89   2.0000      -0.465470       -12.6661 
  90   2.0000      -0.462343       -12.5810 
  91   2.0000      -0.454724       -12.3737 
  92   2.0000      -0.451949       -12.2982 
  93   2.0000      -0.444842       -12.1048 
  94   2.0000      -0.441388       -12.0108 
  95   2.0000      -0.438718       -11.9381 
  96   2.0000      -0.436712       -11.8835 
  97   2.0000      -0.431275       -11.7356 
  98   2.0000      -0.427135       -11.6229 
  99   2.0000      -0.425548       -11.5798 
 100   2.0000      -0.423258       -11.5174 
 101   2.0000      -0.421914       -11.4809 
 102   2.0000      -0.419438       -11.4135 
 103   2.0000      -0.415365       -11.3026 
 104   2.0000      -0.411821       -11.2062 
 105   2.0000      -0.410559       -11.1719 
 106   2.0000      -0.408626       -11.1193 
 107   2.0000      -0.401320       -10.9205 
 108   2.0000      -0.398464       -10.8428 
 109   2.0000      -0.392938       -10.6924 
 110   2.0000      -0.390132       -10.6160 
 111   2.0000      -0.386874       -10.5274 
 112   2.0000      -0.385775       -10.4975 
 113   2.0000      -0.381781       -10.3888 
 114   2.0000      -0.380874       -10.3641 
 115   2.0000      -0.378487       -10.2992 
 116   2.0000      -0.377546       -10.2735 
 117   2.0000      -0.375116       -10.2074 
 118   2.0000      -0.373479       -10.1629 
 119   2.0000      -0.371669       -10.1136 
 120   2.0000      -0.370950       -10.0941 
 121   2.0000      -0.367152        -9.9907 
 122   2.0000      -0.366932        -9.9847 
 123   2.0000      -0.365107        -9.9351 
 124   2.0000      -0.359559        -9.7841 
 125   2.0000      -0.357259        -9.7215 
 126   2.0000      -0.356215        -9.6931 
 127   2.0000      -0.353122        -9.6090 
 128   2.0000      -0.351668        -9.5694 
 129   2.0000      -0.351245        -9.5579 
 130   2.0000      -0.346816        -9.4374 
 131   2.0000      -0.346529        -9.4295 
 132   2.0000      -0.343204        -9.3390 
 133   2.0000      -0.342049        -9.3076 
 134   2.0000      -0.340670        -9.2701 
 135   2.0000      -0.340201        -9.2573 
 136   2.0000      -0.334473        -9.1015 
 137   2.0000      -0.331866        -9.0305 
 138   2.0000      -0.330149        -8.9838 
 139   2.0000      -0.322612        -8.7787 
 140   2.0000      -0.320728        -8.7274 
 141   2.0000      -0.317458        -8.6385 
 142   2.0000      -0.314554        -8.5595 
 143   2.0000      -0.313418        -8.5285 
 144   2.0000      -0.308198        -8.3865 
 145   2.0000      -0.306593        -8.3428 
 146   2.0000      -0.301688        -8.2093 
 147   2.0000      -0.299954        -8.1622 
 148   2.0000      -0.295915        -8.0523 
 149   2.0000      -0.292794        -7.9673 
 150   2.0000      -0.285033        -7.7562 
 151   2.0000      -0.282800        -7.6954 
 152   2.0000      -0.271230        -7.3805 
 153   2.0000      -0.265971        -7.2374 
 154   2.0000      -0.253628        -6.9016 
 155   2.0000      -0.249590        -6.7917 
 156   2.0000      -0.241080        -6.5601 
 157   0.0000      -0.022836        -0.6214 
 158   0.0000      -0.019860        -0.5404 
 159   0.0000      -0.010045        -0.2733 
 160   0.0000      -0.005664        -0.1541 
 161   0.0000      -0.004274        -0.1163 
 162   0.0000       0.000030         0.0008 
 163   0.0000       0.003950         0.1075 
 164   0.0000       0.006694         0.1821 
 165   0.0000       0.009757         0.2655 
 166   0.0000       0.010005         0.2722 
[...]
308:   3148.42   0.005425   27.41  0.000538  (-0.012951  0.019077  0.002452)
309:   3157.28   0.004288   21.67  0.000424  ( 0.004843 -0.019982 -0.001052)
310:   3157.95   0.006214   31.40  0.000614  (-0.023843  0.000550 -0.006730)
311:   3162.98   0.002150   10.87  0.000212  ( 0.002873 -0.006271 -0.012828)
312:   3169.49   0.004277   21.61  0.000421  ( 0.013028  0.015467 -0.003485)
313:   3228.72   0.004006   20.24  0.000387  ( 0.002629  0.013788 -0.013788)
314:   3647.62   0.152147  768.89  0.013017  ( 0.099379 -0.053258  0.017435)
315:   3650.89   0.117657  594.59  0.010057  (-0.073081  0.005378  0.068462)
316:   3819.34   0.004923   24.88  0.000402  (-0.010778  0.016160  0.004994)
317:   3838.33   0.004397   22.22  0.000357  ( 0.004384  0.018355  0.001169)

* The epsilon (eps) is given for a Dirac delta lineshape.
** The dipole moment derivative (T) already includes vibrational overlap.

The first frequency considered to be a vibration is 12
The total number of vibrations considered is 306


--------------------------
THERMOCHEMISTRY AT 298.15K
--------------------------

Temperature         ... 298.15 K
Pressure            ... 1.00 atm
Total Mass          ... 562.92 AMU

Throughout the following assumptions are being made:
  (1) The electronic state is orbitally nondegenerate
  (2) There are no thermally accessible electronically excited states
  (3) Hindered rotations indicated by low frequency modes are not
      treated as such but are treated as vibrations and this may
      cause some error
  (4) All equations used are the standard statistical mechanics
      equations for an ideal gas
  (5) All vibrations are strictly harmonic

freq.       5.04  E(vib)   ...       0.59 
freq.      17.34  E(vib)   ...       0.57 
freq.      25.59  E(vib)   ...       0.56 
freq.      32.22  E(vib)   ...       0.55 
freq.      32.59  E(vib)   ...       0.55 
freq.      48.57  E(vib)   ...       0.53 
freq.      52.18  E(vib)   ...       0.52 
freq.      54.48  E(vib)   ...       0.52 
freq.      62.04  E(vib)   ...       0.51 
freq.      71.34  E(vib)   ...       0.50 
freq.      76.00  E(vib)   ...       0.49 
freq.      93.45  E(vib)   ...       0.47 
freq.     107.27  E(vib)   ...       0.45 
freq.     110.52  E(vib)   ...       0.45 
freq.     117.50  E(vib)   ...       0.44 
freq.     131.60  E(vib)   ...       0.42 
freq.     162.41  E(vib)   ...       0.39 
freq.     164.03  E(vib)   ...       0.39 
freq.     173.38  E(vib)   ...       0.38 
freq.     176.55  E(vib)   ...       0.38 
freq.     186.68  E(vib)   ...       0.37 
freq.     194.20  E(vib)   ...       0.36 
freq.     204.20  E(vib)   ...       0.35 
freq.     204.76  E(vib)   ...       0.35 
freq.     206.10  E(vib)   ...       0.35 
freq.     229.00  E(vib)   ...       0.32 
freq.     232.95  E(vib)   ...       0.32 
freq.     235.74  E(vib)   ...       0.32 
freq.     240.48  E(vib)   ...       0.31 
freq.     248.12  E(vib)   ...       0.31 
freq.     251.67  E(vib)   ...       0.30 
freq.     253.14  E(vib)   ...       0.30 
freq.     258.98  E(vib)   ...       0.30 
freq.     266.71  E(vib)   ...       0.29 
freq.     267.28  E(vib)   ...       0.29 
freq.     270.69  E(vib)   ...       0.29 
freq.     282.46  E(vib)   ...       0.28 
freq.     288.93  E(vib)   ...       0.27 
freq.     295.05  E(vib)   ...       0.27 
freq.     300.68  E(vib)   ...       0.26 
freq.     303.62  E(vib)   ...       0.26 
freq.     313.52  E(vib)   ...       0.25 
freq.     321.38  E(vib)   ...       0.25 
freq.     325.53  E(vib)   ...       0.24 
freq.     332.06  E(vib)   ...       0.24 
freq.     345.87  E(vib)   ...       0.23 
freq.     355.07  E(vib)   ...       0.22 
freq.     361.73  E(vib)   ...       0.22 
freq.     362.61  E(vib)   ...       0.22 
freq.     368.59  E(vib)   ...       0.21 
freq.     374.71  E(vib)   ...       0.21 
freq.     377.77  E(vib)   ...       0.21 
freq.     395.98  E(vib)   ...       0.20 
freq.     402.35  E(vib)   ...       0.19 
freq.     408.59  E(vib)   ...       0.19 
freq.     429.05  E(vib)   ...       0.18 
freq.     429.31  E(vib)   ...       0.18 
freq.     440.40  E(vib)   ...       0.17 
freq.     447.26  E(vib)   ...       0.17 
freq.     456.17  E(vib)   ...       0.16 
freq.     459.72  E(vib)   ...       0.16 
freq.     466.00  E(vib)   ...       0.16 
freq.     479.05  E(vib)   ...       0.15 
freq.     480.60  E(vib)   ...       0.15 
freq.     483.94  E(vib)   ...       0.15 
freq.     485.71  E(vib)   ...       0.15 
freq.     511.72  E(vib)   ...       0.14 
freq.     519.66  E(vib)   ...       0.13 
freq.     530.07  E(vib)   ...       0.13 
freq.     540.83  E(vib)   ...       0.12 
freq.     547.91  E(vib)   ...       0.12 
freq.     551.73  E(vib)   ...       0.12 
freq.     601.20  E(vib)   ...       0.10 
freq.     605.51  E(vib)   ...       0.10 
freq.     614.90  E(vib)   ...       0.10 
freq.     625.15  E(vib)   ...       0.09 
freq.     635.01  E(vib)   ...       0.09 
freq.     640.00  E(vib)   ...       0.09 
freq.     661.98  E(vib)   ...       0.08 
freq.     680.83  E(vib)   ...       0.08 
freq.     708.77  E(vib)   ...       0.07 
freq.     725.44  E(vib)   ...       0.06 
freq.     736.26  E(vib)   ...       0.06 
freq.     749.33  E(vib)   ...       0.06 
freq.     752.29  E(vib)   ...       0.06 
freq.     777.87  E(vib)   ...       0.05 
freq.     785.50  E(vib)   ...       0.05 
freq.     808.00  E(vib)   ...       0.05 
freq.     820.91  E(vib)   ...       0.05 
freq.     821.23  E(vib)   ...       0.05 
freq.     828.33  E(vib)   ...       0.04 
freq.     847.65  E(vib)   ...       0.04 
freq.     862.67  E(vib)   ...       0.04 
freq.     867.16  E(vib)   ...       0.04 
freq.     881.87  E(vib)   ...       0.04 
freq.     887.70  E(vib)   ...       0.04 
freq.     900.47  E(vib)   ...       0.03 
freq.     906.35  E(vib)   ...       0.03 
freq.     911.26  E(vib)   ...       0.03 
freq.     917.05  E(vib)   ...       0.03 
freq.     923.69  E(vib)   ...       0.03 
freq.     924.89  E(vib)   ...       0.03 
freq.     925.27  E(vib)   ...       0.03 
freq.     930.73  E(vib)   ...       0.03 
freq.     934.64  E(vib)   ...       0.03 
freq.     935.50  E(vib)   ...       0.03 
freq.     942.54  E(vib)   ...       0.03 
freq.     942.86  E(vib)   ...       0.03 
freq.     943.54  E(vib)   ...       0.03 
freq.     957.38  E(vib)   ...       0.03 
freq.     957.83  E(vib)   ...       0.03 
freq.     958.59  E(vib)   ...       0.03 
freq.     963.69  E(vib)   ...       0.03 
freq.     967.58  E(vib)   ...       0.03 
freq.     978.29  E(vib)   ...       0.03 
freq.     986.91  E(vib)   ...       0.02 
freq.     988.74  E(vib)   ...       0.02 
freq.    1000.00  E(vib)   ...       0.02 
freq.    1006.67  E(vib)   ...       0.02 
freq.    1009.72  E(vib)   ...       0.02 
freq.    1018.57  E(vib)   ...       0.02 
freq.    1021.77  E(vib)   ...       0.02 
freq.    1025.06  E(vib)   ...       0.02 
freq.    1027.16  E(vib)   ...       0.02 
freq.    1035.04  E(vib)   ...       0.02 
freq.    1039.20  E(vib)   ...       0.02 
freq.    1049.62  E(vib)   ...       0.02 
freq.    1054.90  E(vib)   ...       0.02 
freq.    1065.72  E(vib)   ...       0.02 
freq.    1069.62  E(vib)   ...       0.02 
freq.    1083.94  E(vib)   ...       0.02 
freq.    1086.33  E(vib)   ...       0.02 
freq.    1095.79  E(vib)   ...       0.02 
freq.    1099.48  E(vib)   ...       0.02 
freq.    1108.69  E(vib)   ...       0.02 
freq.    1115.07  E(vib)   ...       0.01 
freq.    1121.52  E(vib)   ...       0.01 
freq.    1123.12  E(vib)   ...       0.01 
freq.    1126.97  E(vib)   ...       0.01 
freq.    1129.45  E(vib)   ...       0.01 
freq.    1135.57  E(vib)   ...       0.01 
freq.    1147.21  E(vib)   ...       0.01 
freq.    1149.64  E(vib)   ...       0.01 
freq.    1150.19  E(vib)   ...       0.01 
freq.    1150.75  E(vib)   ...       0.01 
freq.    1156.36  E(vib)   ...       0.01 
freq.    1164.93  E(vib)   ...       0.01 
freq.    1171.29  E(vib)   ...       0.01 
freq.    1183.02  E(vib)   ...       0.01 
freq.    1183.99  E(vib)   ...       0.01 
freq.    1185.38  E(vib)   ...       0.01 
freq.    1201.24  E(vib)   ...       0.01 
freq.    1206.85  E(vib)   ...       0.01 
freq.    1213.55  E(vib)   ...       0.01 
freq.    1217.59  E(vib)   ...       0.01 
freq.    1221.39  E(vib)   ...       0.01 
freq.    1223.84  E(vib)   ...       0.01 
freq.    1229.29  E(vib)   ...       0.01 
freq.    1233.43  E(vib)   ...       0.01 
freq.    1247.88  E(vib)   ...       0.01 
freq.    1259.61  E(vib)   ...       0.01 
freq.    1264.34  E(vib)   ...       0.01 
freq.    1276.26  E(vib)   ...       0.01 
freq.    1279.78  E(vib)   ...       0.01 
freq.    1290.24  E(vib)   ...       0.01 
freq.    1296.17  E(vib)   ...       0.01 
freq.    1303.30  E(vib)   ...       0.01 
freq.    1305.84  E(vib)   ...       0.01 
freq.    1310.37  E(vib)   ...       0.01 
freq.    1316.25  E(vib)   ...       0.01 
freq.    1320.08  E(vib)   ...       0.01 
freq.    1320.90  E(vib)   ...       0.01 
freq.    1328.67  E(vib)   ...       0.01 
freq.    1337.62  E(vib)   ...       0.01 
freq.    1345.96  E(vib)   ...       0.01 
freq.    1347.46  E(vib)   ...       0.01 
freq.    1348.81  E(vib)   ...       0.01 
freq.    1357.25  E(vib)   ...       0.01 
freq.    1361.14  E(vib)   ...       0.01 
freq.    1363.68  E(vib)   ...       0.01 
freq.    1364.57  E(vib)   ...       0.01 
freq.    1365.72  E(vib)   ...       0.01 
freq.    1370.71  E(vib)   ...       0.01 
freq.    1373.80  E(vib)   ...       0.01 
freq.    1376.22  E(vib)   ...       0.01 
freq.    1378.24  E(vib)   ...       0.01 
freq.    1382.49  E(vib)   ...       0.01 
freq.    1384.67  E(vib)   ...       0.00 
freq.    1385.68  E(vib)   ...       0.00 
freq.    1390.61  E(vib)   ...       0.00 
freq.    1394.82  E(vib)   ...       0.00 
freq.    1395.51  E(vib)   ...       0.00 
freq.    1396.82  E(vib)   ...       0.00 
freq.    1402.51  E(vib)   ...       0.00 
freq.    1405.73  E(vib)   ...       0.00 
freq.    1409.65  E(vib)   ...       0.00 
freq.    1409.69  E(vib)   ...       0.00 
freq.    1411.88  E(vib)   ...       0.00 
freq.    1413.14  E(vib)   ...       0.00 
freq.    1417.04  E(vib)   ...       0.00 
freq.    1418.28  E(vib)   ...       0.00 
freq.    1421.18  E(vib)   ...       0.00 
freq.    1429.94  E(vib)   ...       0.00 
freq.    1433.07  E(vib)   ...       0.00 
freq.    1436.92  E(vib)   ...       0.00 
freq.    1443.36  E(vib)   ...       0.00 
freq.    1446.70  E(vib)   ...       0.00 
freq.    1455.39  E(vib)   ...       0.00 
freq.    1480.11  E(vib)   ...       0.00 
freq.    1480.96  E(vib)   ...       0.00 
freq.    1481.64  E(vib)   ...       0.00 
freq.    1482.05  E(vib)   ...       0.00 
freq.    1486.30  E(vib)   ...       0.00 
freq.    1487.47  E(vib)   ...       0.00 
freq.    1487.93  E(vib)   ...       0.00 
freq.    1489.84  E(vib)   ...       0.00 
freq.    1490.18  E(vib)   ...       0.00 
freq.    1492.47  E(vib)   ...       0.00 
freq.    1493.72  E(vib)   ...       0.00 
freq.    1494.67  E(vib)   ...       0.00 
freq.    1497.20  E(vib)   ...       0.00 
freq.    1498.31  E(vib)   ...       0.00 
freq.    1499.28  E(vib)   ...       0.00 
freq.    1500.29  E(vib)   ...       0.00 
freq.    1500.90  E(vib)   ...       0.00 
freq.    1502.54  E(vib)   ...       0.00 
freq.    1507.09  E(vib)   ...       0.00 
freq.    1507.57  E(vib)   ...       0.00 
freq.    1508.08  E(vib)   ...       0.00 
freq.    1509.28  E(vib)   ...       0.00 
freq.    1510.67  E(vib)   ...       0.00 
freq.    1514.07  E(vib)   ...       0.00 
freq.    1517.51  E(vib)   ...       0.00 
freq.    1517.98  E(vib)   ...       0.00 
freq.    1518.64  E(vib)   ...       0.00 
freq.    1522.94  E(vib)   ...       0.00 
freq.    1525.28  E(vib)   ...       0.00 
freq.    1526.71  E(vib)   ...       0.00 
freq.    1538.83  E(vib)   ...       0.00 
freq.    1702.72  E(vib)   ...       0.00 
freq.    2993.47  E(vib)   ...       0.00 
freq.    2993.54  E(vib)   ...       0.00 
freq.    2996.35  E(vib)   ...       0.00 
freq.    3021.00  E(vib)   ...       0.00 
freq.    3034.15  E(vib)   ...       0.00 
freq.    3034.17  E(vib)   ...       0.00 
freq.    3035.07  E(vib)   ...       0.00 
freq.    3035.40  E(vib)   ...       0.00 
freq.    3037.27  E(vib)   ...       0.00 
freq.    3040.36  E(vib)   ...       0.00 
freq.    3043.26  E(vib)   ...       0.00 
freq.    3043.67  E(vib)   ...       0.00 
freq.    3044.50  E(vib)   ...       0.00 
freq.    3044.53  E(vib)   ...       0.00 
freq.    3046.21  E(vib)   ...       0.00 
freq.    3048.66  E(vib)   ...       0.00 
freq.    3051.96  E(vib)   ...       0.00 
freq.    3055.82  E(vib)   ...       0.00 
freq.    3056.22  E(vib)   ...       0.00 
freq.    3057.04  E(vib)   ...       0.00 
freq.    3057.31  E(vib)   ...       0.00 
freq.    3060.55  E(vib)   ...       0.00 
freq.    3061.45  E(vib)   ...       0.00 
freq.    3065.46  E(vib)   ...       0.00 
freq.    3070.78  E(vib)   ...       0.00 
freq.    3071.88  E(vib)   ...       0.00 
freq.    3072.45  E(vib)   ...       0.00 
freq.    3075.63  E(vib)   ...       0.00 
freq.    3078.22  E(vib)   ...       0.00 
freq.    3085.67  E(vib)   ...       0.00 
freq.    3088.76  E(vib)   ...       0.00 
freq.    3090.14  E(vib)   ...       0.00 
freq.    3091.08  E(vib)   ...       0.00 
freq.    3091.54  E(vib)   ...       0.00 
freq.    3096.01  E(vib)   ...       0.00 
freq.    3100.97  E(vib)   ...       0.00 
freq.    3103.70  E(vib)   ...       0.00 
freq.    3104.81  E(vib)   ...       0.00 
freq.    3104.86  E(vib)   ...       0.00 
freq.    3107.00  E(vib)   ...       0.00 
freq.    3109.14  E(vib)   ...       0.00 
freq.    3109.86  E(vib)   ...       0.00 
freq.    3110.61  E(vib)   ...       0.00 
freq.    3113.64  E(vib)   ...       0.00 
freq.    3116.76  E(vib)   ...       0.00 
freq.    3116.98  E(vib)   ...       0.00 
freq.    3117.26  E(vib)   ...       0.00 
freq.    3121.60  E(vib)   ...       0.00 
freq.    3122.60  E(vib)   ...       0.00 
freq.    3123.14  E(vib)   ...       0.00 
freq.    3123.18  E(vib)   ...       0.00 
freq.    3125.16  E(vib)   ...       0.00 
freq.    3133.96  E(vib)   ...       0.00 
freq.    3136.37  E(vib)   ...       0.00 
freq.    3143.17  E(vib)   ...       0.00 
freq.    3146.51  E(vib)   ...       0.00 
freq.    3148.42  E(vib)   ...       0.00 
freq.    3157.28  E(vib)   ...       0.00 
freq.    3157.95  E(vib)   ...       0.00 
freq.    3162.98  E(vib)   ...       0.00 
freq.    3169.49  E(vib)   ...       0.00 
freq.    3228.72  E(vib)   ...       0.00 
freq.    3647.62  E(vib)   ...       0.00 
freq.    3650.89  E(vib)   ...       0.00 
freq.    3819.34  E(vib)   ...       0.00 
freq.    3838.33  E(vib)   ...       0.00 

------------
INNER ENERGY
------------

The inner energy is: U= E(el) + E(ZPE) + E(vib) + E(rot) + E(trans)
    E(el)   - is the total energy from the electronic structure calculation
              = E(kin-el) + E(nuc-el) + E(el-el) + E(nuc-nuc)
    E(ZPE)  - the the zero temperature vibrational energy from the frequency calculation
    E(vib)  - the the finite temperature correction to E(ZPE) due to population
              of excited vibrational states
    E(rot)  - is the rotational thermal energy
    E(trans)- is the translational thermal energy

Summary of contributions to the inner energy U:
Electronic energy                ...  -1711.41193738 Eh
Zero point energy                ...      0.97166977 Eh     609.73 kcal/mol
Thermal vibrational correction   ...      0.03954690 Eh      24.82 kcal/mol
Thermal rotational correction    ...      0.00141627 Eh       0.89 kcal/mol
Thermal translational correction ...      0.00141627 Eh       0.89 kcal/mol
-----------------------------------------------------------------------
Total thermal energy                  -1710.39788816 Eh


Summary of corrections to the electronic energy:
(perhaps to be used in another calculation)
Total thermal correction                  0.04237945 Eh      26.59 kcal/mol
Non-thermal (ZPE) correction              0.97166977 Eh     609.73 kcal/mol
-----------------------------------------------------------------------
Total correction                          1.01404922 Eh     636.32 kcal/mol


--------
ENTHALPY
--------

The enthalpy is H = U + kB*T
                kB is Boltzmann's constant
Total free energy                 ...  -1710.39788816 Eh 
Thermal Enthalpy correction       ...      0.00094421 Eh       0.59 kcal/mol
-----------------------------------------------------------------------
Total Enthalpy                    ...  -1710.39694395 Eh


Note: Only C1 symmetry has been detected, increase convergence thresholds 
      if your molecule has a higher symmetry. Symmetry factor of 1.0 is   
      used for the rotational entropy correction. 
 

Note: Rotational entropy computed according to Herzberg 
Infrared and Raman Spectra, Chapter V,1, Van Nostrand Reinhold, 1945 
Point Group:  C1, Symmetry Number:   1  
Rotational constants in cm-1:     0.005207     0.001035     0.000980 

Vibrational entropy computed according to the QRRHO of S. Grimme
Chem.Eur.J. 2012 18 9955


-------
ENTROPY
-------

The entropy contributions are T*S = T*(S(el)+S(vib)+S(rot)+S(trans))
     S(el)   - electronic entropy
     S(vib)  - vibrational entropy
     S(rot)  - rotational entropy
     S(trans)- translational entropy
The entropies will be listed as multiplied by the temperature to get
units of energy

Electronic entropy                ...      0.00000000 Eh      0.00 kcal/mol
Vibrational entropy               ...      0.06953451 Eh     43.63 kcal/mol
Rotational entropy                ...      0.01850819 Eh     11.61 kcal/mol
Translational entropy             ...      0.02131851 Eh     13.38 kcal/mol
-----------------------------------------------------------------------
Final entropy term                ...      0.10936121 Eh     68.63 kcal/mol

In case the symmetry of your molecule has not been determined correctly
or in case you have a reason to use a different symmetry number we print 
out the resulting rotational entropy values for sn=1,12 :
 --------------------------------------------------------
|  sn= 1 | S(rot)=       0.01850819 Eh     11.61 kcal/mol|
|  sn= 2 | S(rot)=       0.01785373 Eh     11.20 kcal/mol|
|  sn= 3 | S(rot)=       0.01747090 Eh     10.96 kcal/mol|
|  sn= 4 | S(rot)=       0.01719927 Eh     10.79 kcal/mol|
|  sn= 5 | S(rot)=       0.01698859 Eh     10.66 kcal/mol|
|  sn= 6 | S(rot)=       0.01681644 Eh     10.55 kcal/mol|
|  sn= 7 | S(rot)=       0.01667089 Eh     10.46 kcal/mol|
|  sn= 8 | S(rot)=       0.01654482 Eh     10.38 kcal/mol|
|  sn= 9 | S(rot)=       0.01643361 Eh     10.31 kcal/mol|
|  sn=10 | S(rot)=       0.01633413 Eh     10.25 kcal/mol|
|  sn=11 | S(rot)=       0.01624414 Eh     10.19 kcal/mol|
|  sn=12 | S(rot)=       0.01616198 Eh     10.14 kcal/mol|
 --------------------------------------------------------


-------------------
GIBBS FREE ENERGY
-------------------

The Gibbs free energy is G = H - T*S

Total enthalpy                    ...  -1710.39694395 Eh 
Total entropy correction          ...     -0.10936121 Eh    -68.63 kcal/mol
-----------------------------------------------------------------------
Final Gibbs free energy         ...  -1710.50630516 Eh

For completeness - the Gibbs free energy minus the electronic energy
G-E(el)                           ...      0.90563222 Eh    568.29 kcal/mol


Timings for individual modules:

Sum of individual times         ...     8529.599 sec (= 142.160 min)
GTO integral calculation        ...        1.442 sec (=   0.024 min)   0.0 %
SCF iterations                  ...      719.961 sec (=  11.999 min)   8.4 %
Analytical frequency calculation...     7808.196 sec (= 130.137 min)  91.5 %
                             ****ORCA TERMINATED NORMALLY****
TOTAL RUN TIME: 0 days 2 hours 22 minutes 11 seconds 134 msec
