
                                 *****************
                                 * O   R   C   A *
                                 *****************

                                            #,                                       
                                            ###                                      
                                            ####                                     
                                            #####                                    
                                            ######                                   
                                           ########,                                 
                                     ,,################,,,,,                         
                               ,,#################################,,                 
                          ,,##########################################,,             
                       ,#########################################, ''#####,          
                    ,#############################################,,   '####,        
                  ,##################################################,,,,####,       
                ,###########''''           ''''###############################       
              ,#####''   ,,,,##########,,,,          '''####'''          '####       
            ,##' ,,,,###########################,,,                        '##       
           ' ,,###''''                  '''############,,,                           
         ,,##''                                '''############,,,,        ,,,,,,###''
      ,#''                                            '''#######################'''  
     '                                                          ''''####''''         
             ,#######,   #######,   ,#######,      ##                                
            ,#'     '#,  ##    ##  ,#'     '#,    #''#        ######   ,####,        
            ##       ##  ##   ,#'  ##            #'  '#       #        #'  '#        
            ##       ##  #######   ##           ,######,      #####,   #    #        
            '#,     ,#'  ##    ##  '#,     ,#' ,#      #,         ##   #,  ,#        
             '#######'   ##     ##  '#######'  #'      '#     #####' # '####'        



                  #######################################################
                  #                        -***-                        #
                  #          Department of theory and spectroscopy      #
                  #    Directorship and core code : Frank Neese         #
                  #        Max Planck Institute fuer Kohlenforschung    #
                  #                Kaiser Wilhelm Platz 1               #
                  #                 D-45470 Muelheim/Ruhr               #
                  #                      Germany                        #
                  #                                                     #
                  #                  All rights reserved                #
                  #                        -***-                        #
                  #######################################################


                         Program Version 5.0.4 -  RELEASE  -


 With contributions from (in alphabetic order):
   Daniel Aravena         : Magnetic Suceptibility
   Michael Atanasov       : Ab Initio Ligand Field Theory (pilot matlab implementation)
   Alexander A. Auer      : GIAO ZORA, VPT2 properties, NMR spectrum
   Ute Becker             : Parallelization
   Giovanni Bistoni       : ED, misc. LED, open-shell LED, HFLD
   Martin Brehm           : Molecular dynamics
   Dmytro Bykov           : SCF Hessian
   Vijay G. Chilkuri      : MRCI spin determinant printing, contributions to CSF-ICE
   Dipayan Datta          : RHF DLPNO-CCSD density
   Achintya Kumar Dutta   : EOM-CC, STEOM-CC
   Dmitry Ganyushin       : Spin-Orbit,Spin-Spin,Magnetic field MRCI
   Miquel Garcia          : C-PCM and meta-GGA Hessian, CC/C-PCM, Gaussian charge scheme
   Yang Guo               : DLPNO-NEVPT2, F12-NEVPT2, CIM, IAO-localization
   Andreas Hansen         : Spin unrestricted coupled pair/coupled cluster methods
   Benjamin Helmich-Paris : MC-RPA, TRAH-SCF, COSX integrals
   Lee Huntington         : MR-EOM, pCC
   Robert Izsak           : Overlap fitted RIJCOSX, COSX-SCS-MP3, EOM
   Marcus Kettner         : VPT2
   Christian Kollmar      : KDIIS, OOCD, Brueckner-CCSD(T), CCSD density, CASPT2, CASPT2-K
   Simone Kossmann        : Meta GGA functionals, TD-DFT gradient, OOMP2, MP2 Hessian
   Martin Krupicka        : Initial AUTO-CI
   Lucas Lang             : DCDCAS
   Marvin Lechner         : AUTO-CI (C++ implementation), FIC-MRCC
   Dagmar Lenk            : GEPOL surface, SMD
   Dimitrios Liakos       : Extrapolation schemes; Compound Job, initial MDCI parallelization
   Dimitrios Manganas     : Further ROCIS development; embedding schemes
   Dimitrios Pantazis     : SARC Basis sets
   Anastasios Papadopoulos: AUTO-CI, single reference methods and gradients
   Taras Petrenko         : DFT Hessian,TD-DFT gradient, ASA, ECA, R-Raman, ABS, FL, XAS/XES, NRVS
   Peter Pinski           : DLPNO-MP2, DLPNO-MP2 Gradient
   Christoph Reimann      : Effective Core Potentials
   Marius Retegan         : Local ZFS, SOC
   Christoph Riplinger    : Optimizer, TS searches, QM/MM, DLPNO-CCSD(T), (RO)-DLPNO pert. Triples
   Tobias Risthaus        : Range-separated hybrids, TD-DFT gradient, RPA, STAB
   Michael Roemelt        : Original ROCIS implementation
   Masaaki Saitow         : Open-shell DLPNO-CCSD energy and density
   Barbara Sandhoefer     : DKH picture change effects
   Avijit Sen             : IP-ROCIS
   Kantharuban Sivalingam : CASSCF convergence, NEVPT2, FIC-MRCI
   Bernardo de Souza      : ESD, SOC TD-DFT
   Georgi Stoychev        : AutoAux, RI-MP2 NMR, DLPNO-MP2 response
   Willem Van den Heuvel  : Paramagnetic NMR
   Boris Wezisla          : Elementary symmetry handling
   Frank Wennmohs         : Technical directorship


 We gratefully acknowledge several colleagues who have allowed us to
 interface, adapt or use parts of their codes:
   Stefan Grimme, W. Hujo, H. Kruse, P. Pracht,  : VdW corrections, initial TS optimization,
                  C. Bannwarth, S. Ehlert          DFT functionals, gCP, sTDA/sTD-DF
   Ed Valeev, F. Pavosevic, A. Kumar             : LibInt (2-el integral package), F12 methods
   Garnet Chan, S. Sharma, J. Yang, R. Olivares  : DMRG
   Ulf Ekstrom                                   : XCFun DFT Library
   Mihaly Kallay                                 : mrcc  (arbitrary order and MRCC methods)
   Jiri Pittner, Ondrej Demel                    : Mk-CCSD
   Frank Weinhold                                : gennbo (NPA and NBO analysis)
   Christopher J. Cramer and Donald G. Truhlar   : smd solvation model
   Lars Goerigk                                  : TD-DFT with DH, B97 family of functionals
   V. Asgeirsson, H. Jonsson                     : NEB implementation
   FAccTs GmbH                                   : IRC, NEB, NEB-TS, DLPNO-Multilevel, CI-OPT
                                                   MM, QMMM, 2- and 3-layer-ONIOM, Crystal-QMMM,
                                                   LR-CPCM, SF, NACMEs, symmetry and pop. for TD-DFT,
                                                   nearIR, NL-DFT gradient (VV10), updates on ESD,
                                                   ML-optimized integration grids
   S Lehtola, MJT Oliveira, MAL Marques          : LibXC Library
   Liviu Ungur et al                             : ANISO software


 Your calculation uses the libint2 library for the computation of 2-el integrals
 For citations please refer to: http://libint.valeyev.net

 Your ORCA version has been built with support for libXC version: 5.1.0
 For citations please refer to: https://tddft.org/programs/libxc/

 This ORCA versions uses:
   CBLAS   interface :  Fast vector & matrix operations
   LAPACKE interface :  Fast linear algebra routines
   SCALAPACK package :  Parallel linear algebra routines
   Shared memory     :  Shared parallel matrices
   BLAS/LAPACK       :  OpenBLAS 0.3.15  USE64BITINT DYNAMIC_ARCH NO_AFFINITY Zen SINGLE_THREADED
        Core in use  :  Zen
   Copyright (c) 2011-2014, The OpenBLAS Project


================================================================================

----- Orbital basis set information -----
Your calculation utilizes the basis: 6-31++G(2d,2p)
   H-He, Li-Ne : W. J. Hehre, R. Ditchfield and J.A. Pople, J. Chem. Phys. 56, 2257 (1972).
                 Note: He and Ne are unpublished basis sets taken from the Gaussian program.
                 Note: Li and B from J. D. Dill and J. A. Pople, J. Chem. Phys. 62, 2921 (1975).
   Na - Ar     : M. M. Francl, W. J. Pietro, W. J. Hehre, J. S. Binkley, M. S. Gordon, 
                 D. J. DeFrees and J. A. Pople, J. Chem. Phys. 77, 3654 (1982).
   K - Zn      : V. A. Rassolov, J. A. Pople, M. A. Ratner, and T. L. Windus, J. Chem. Phys. 109, 1223 (1998).
   Additional Pol./Diff. from the 6-311G equivalent.

----- AuxJ basis set information -----
Your calculation utilizes the auxiliary basis: def2/J
   F. Weigend, Phys. Chem. Chem. Phys. 8, 1057 (2006).

================================================================================
                                        WARNINGS
                       Please study these warnings very carefully!
================================================================================

WARNING: Old DensityContainer found on disk!
         Will remove this file - 
         If you want to keep old densities, please start your calculation with a different basename. 


INFO   : the flag for use of the SHARK integral package has been found!

================================================================================
                                       INPUT FILE
================================================================================
NAME = betulin_eth_freq.inp
|  1> # avogadro generated ORCA file
|  2> # C34H62O4 | Frequencies | B3LYP/6-31G(d)
|  3> # 
|  4> ! Freq B3LYP 6-31++G(2d,2p) CPCM(Water)
|  5> 
|  6> %maxcore 1800
|  7> 
|  8> %pal
|  9>    nprocs 10
| 10> end
| 11> 
| 12> * xyz 0 1
| 13>    O     -5.879187    1.234823    1.171509
| 14>    O      4.900510   -2.926498    0.822980
| 15>    C     -0.424812   -0.960678   -0.066266
| 16>    C      0.973468   -0.784152   -0.847464
| 17>    C     -1.120977    0.448820   -0.009851
| 18>    C      1.869346    0.219827   -0.023997
| 19>    C     -2.641591    0.510968    0.416686
| 20>    C      3.297294    0.289113   -0.600458
| 21>    C      3.999218   -1.101691   -0.612865
| 22>    C     -3.414030   -0.531854   -0.454407
| 23>    C      1.707865   -2.150460   -1.010595
| 24>    C     -1.352001   -1.957839   -0.806121
| 25>    C     -0.231681    1.462601    0.736064
| 26>    C      1.173617    1.583241    0.124258
| 27>    C      3.171658   -2.049582   -1.491822
| 28>    C     -2.805466   -1.935023   -0.314561
| 29>    C      4.356828    1.238560    0.027314
| 30>    C     -4.986706   -0.514706   -0.360647
| 31>    C     -3.176057    1.943281    0.050317
| 32>    C      5.390064   -0.722871   -1.154504
| 33>    C     -0.181657   -1.544403    1.351850
| 34>    C      0.755982   -0.247473   -2.289935
| 35>    C      5.722736    0.622865   -0.460928
| 36>    C     -2.848463    0.301734    1.934614
| 37>    C     -5.521829    0.945089   -0.207581
| 38>    C     -4.510554    1.962743   -0.720113
| 39>    C      4.164993   -1.682871    0.812097
| 40>    C      4.274696    2.715805   -0.310056
| 41>    C     -5.536473   -1.028393   -1.714483
| 42>    C     -5.552210   -1.433100    0.741601
| 43>    C      4.093480    3.111632   -1.755902
| 44>    C      4.422009    3.645580    0.645298
| 45>    H     -1.161223    0.786711   -1.049936
| 46>    H      1.959845   -0.184571    0.988837
| 47>    H      3.220789    0.575533   -1.655762
| 48>    H     -3.199642   -0.226710   -1.488601
| 49>    H      1.152696   -2.770577   -1.722253
| 50>    H      1.699930   -2.700557   -0.067572
| 51>    H     -0.951032   -2.972850   -0.707377
| 52>    H     -1.368452   -1.734168   -1.876749
| 53>    H     -0.135368    1.183349    1.790179
| 54>    H     -0.702988    2.450529    0.730469
| 55>    H      1.109631    2.084349   -0.848690
| 56>    H      1.782674    2.232663    0.759276
| 57>    H      3.608909   -3.055784   -1.514227
| 58>    H      3.213727   -1.686556   -2.524624
| 59>    H     -3.377857   -2.654396   -0.909266
| 60>    H     -2.872486   -2.283916    0.720044
| 61>    H      4.306274    1.158151    1.118163
| 62>    H     -2.441720    2.476004   -0.561080
| 63>    H     -3.284663    2.533375    0.965603
| 64>    H      5.327410   -0.587361   -2.239981
| 65>    H      6.144359   -1.491034   -0.964157
| 66>    H     -1.118958   -1.858811    1.809270
| 67>    H      0.451022   -2.433113    1.310064
| 68>    H      0.286628   -0.841171    2.040642
| 69>    H      1.703549   -0.183731   -2.827450
| 70>    H      0.118287   -0.921843   -2.865979
| 71>    H      0.307365    0.744579   -2.329006
| 72>    H      6.384843    0.478290    0.397250
| 73>    H      6.241961    1.300938   -1.142767
| 74>    H     -3.868527    0.561079    2.218490
| 75>    H     -2.664487   -0.723139    2.258262
| 76>    H     -2.176859    0.951788    2.503140
| 77>    H     -6.446083    1.028909   -0.792508
| 78>    H     -4.948379    2.968239   -0.676323
| 79>    H     -4.340233    1.757458   -1.782462
| 80>    H      3.203287   -1.839376    1.304541
| 81>    H      4.749604   -1.008503    1.439461
| 82>    H     -6.628540   -1.105730   -1.680862
| 83>    H     -5.270651   -0.354232   -2.536018
| 84>    H     -5.138432   -2.018463   -1.952669
| 85>    H     -6.643276   -1.349963    0.780742
| 86>    H     -5.312904   -2.477442    0.523277
| 87>    H     -5.162799   -1.196892    1.731886
| 88>    H     -5.866408    2.194682    1.281459
| 89>    H      4.321899   -3.635794    0.517259
| 90>    H      3.094623    2.842608   -2.116733
| 91>    H      4.221394    4.189291   -1.886162
| 92>    H      4.810306    2.598618   -2.407377
| 93>    H      4.420375    4.706858    0.411933
| 94>    H      4.543141    3.370966    1.689778
| 95>    H      8.515082   -5.896109    4.078511
| 96>    C      7.887642   -5.012182    4.231848
| 97>    H      7.216011   -5.210317    5.073591
| 98>    H      8.537712   -4.172259    4.498148
| 99>    C      7.097904   -4.704801    2.971532
|100>    H      7.782596   -4.522989    2.131251
|101>    H      6.463705   -5.561820    2.704302
|102>    O      6.286290   -3.546729    3.201854
|103>    H      5.786395   -3.352704    2.384858
|104>    H    -11.079924    2.455820    3.152865
|105>    C    -10.613988    1.561691    2.726458
|106>    H    -10.684154    0.754059    3.462394
|107>    H    -11.181977    1.269675    1.837055
|108>    C     -9.164277    1.844509    2.371891
|109>    H     -9.106419    2.671709    1.650362
|110>    H     -8.608172    2.147258    3.270278
|111>    O     -8.582916    0.661609    1.809946
|112>    H     -7.646540    0.846136    1.596492
|113> *
|114> 
|115> 
|116> 
|117>                          ****END OF INPUT****
================================================================================

                       ****************************
                       * Single Point Calculation *
                       ****************************

---------------------------------
CARTESIAN COORDINATES (ANGSTROEM)
---------------------------------
  O     -5.879187    1.234823    1.171509
  O      4.900510   -2.926498    0.822980
  C     -0.424812   -0.960678   -0.066266
  C      0.973468   -0.784152   -0.847464
  C     -1.120977    0.448820   -0.009851
  C      1.869346    0.219827   -0.023997
  C     -2.641591    0.510968    0.416686
  C      3.297294    0.289113   -0.600458
  C      3.999218   -1.101691   -0.612865
  C     -3.414030   -0.531854   -0.454407
  C      1.707865   -2.150460   -1.010595
  C     -1.352001   -1.957839   -0.806121
  C     -0.231681    1.462601    0.736064
  C      1.173617    1.583241    0.124258
  C      3.171658   -2.049582   -1.491822
  C     -2.805466   -1.935023   -0.314561
  C      4.356828    1.238560    0.027314
  C     -4.986706   -0.514706   -0.360647
  C     -3.176057    1.943281    0.050317
  C      5.390064   -0.722871   -1.154504
  C     -0.181657   -1.544403    1.351850
  C      0.755982   -0.247473   -2.289935
  C      5.722736    0.622865   -0.460928
  C     -2.848463    0.301734    1.934614
  C     -5.521829    0.945089   -0.207581
  C     -4.510554    1.962743   -0.720113
  C      4.164993   -1.682871    0.812097
  C      4.274696    2.715805   -0.310056
  C     -5.536473   -1.028393   -1.714483
  C     -5.552210   -1.433100    0.741601
  C      4.093480    3.111632   -1.755902
  C      4.422009    3.645580    0.645298
  H     -1.161223    0.786711   -1.049936
  H      1.959845   -0.184571    0.988837
  H      3.220789    0.575533   -1.655762
  H     -3.199642   -0.226710   -1.488601
  H      1.152696   -2.770577   -1.722253
  H      1.699930   -2.700557   -0.067572
  H     -0.951032   -2.972850   -0.707377
  H     -1.368452   -1.734168   -1.876749
  H     -0.135368    1.183349    1.790179
  H     -0.702988    2.450529    0.730469
  H      1.109631    2.084349   -0.848690
  H      1.782674    2.232663    0.759276
  H      3.608909   -3.055784   -1.514227
  H      3.213727   -1.686556   -2.524624
  H     -3.377857   -2.654396   -0.909266
  H     -2.872486   -2.283916    0.720044
  H      4.306274    1.158151    1.118163
  H     -2.441720    2.476004   -0.561080
  H     -3.284663    2.533375    0.965603
  H      5.327410   -0.587361   -2.239981
  H      6.144359   -1.491034   -0.964157
  H     -1.118958   -1.858811    1.809270
  H      0.451022   -2.433113    1.310064
  H      0.286628   -0.841171    2.040642
  H      1.703549   -0.183731   -2.827450
  H      0.118287   -0.921843   -2.865979
  H      0.307365    0.744579   -2.329006
  H      6.384843    0.478290    0.397250
  H      6.241961    1.300938   -1.142767
  H     -3.868527    0.561079    2.218490
  H     -2.664487   -0.723139    2.258262
  H     -2.176859    0.951788    2.503140
  H     -6.446083    1.028909   -0.792508
  H     -4.948379    2.968239   -0.676323
  H     -4.340233    1.757458   -1.782462
  H      3.203287   -1.839376    1.304541
  H      4.749604   -1.008503    1.439461
  H     -6.628540   -1.105730   -1.680862
  H     -5.270651   -0.354232   -2.536018
  H     -5.138432   -2.018463   -1.952669
  H     -6.643276   -1.349963    0.780742
  H     -5.312904   -2.477442    0.523277
  H     -5.162799   -1.196892    1.731886
  H     -5.866408    2.194682    1.281459
  H      4.321899   -3.635794    0.517259
  H      3.094623    2.842608   -2.116733
  H      4.221394    4.189291   -1.886162
  H      4.810306    2.598618   -2.407377
  H      4.420375    4.706858    0.411933
  H      4.543141    3.370966    1.689778
  H      8.515082   -5.896109    4.078511
  C      7.887642   -5.012182    4.231848
  H      7.216011   -5.210317    5.073591
  H      8.537712   -4.172259    4.498148
  C      7.097904   -4.704801    2.971532
  H      7.782596   -4.522989    2.131251
  H      6.463705   -5.561820    2.704302
  O      6.286290   -3.546729    3.201854
  H      5.786395   -3.352704    2.384858
  H    -11.079924    2.455820    3.152865
  C    -10.613988    1.561691    2.726458
  H    -10.684154    0.754059    3.462394
  H    -11.181977    1.269675    1.837055
  C     -9.164277    1.844509    2.371891
  H     -9.106419    2.671709    1.650362
  H     -8.608172    2.147258    3.270278
  O     -8.582916    0.661609    1.809946
  H     -7.646540    0.846136    1.596492

----------------------------
CARTESIAN COORDINATES (A.U.)
----------------------------
  NO LB      ZA    FRAG     MASS         X           Y           Z
   0 O     8.0000    0    15.999  -11.110053    2.333477    2.213831
   1 O     8.0000    0    15.999    9.260622   -5.530280    1.555207
   2 C     6.0000    0    12.011   -0.802778   -1.815418   -0.125225
   3 C     6.0000    0    12.011    1.839588   -1.481833   -1.601475
   4 C     6.0000    0    12.011   -2.118340    0.848147   -0.018616
   5 C     6.0000    0    12.011    3.532552    0.415413   -0.045348
   6 C     6.0000    0    12.011   -4.991884    0.965590    0.787422
   7 C     6.0000    0    12.011    6.230983    0.546344   -1.134701
   8 C     6.0000    0    12.011    7.557427   -2.081894   -1.158147
   9 C     6.0000    0    12.011   -6.451582   -1.005058   -0.858705
  10 C     6.0000    0    12.011    3.227397   -4.063780   -1.909748
  11 C     6.0000    0    12.011   -2.554912   -3.699780   -1.523348
  12 C     6.0000    0    12.011   -0.437814    2.763915    1.390959
  13 C     6.0000    0    12.011    2.217815    2.991892    0.234814
  14 C     6.0000    0    12.011    5.993565   -3.873149   -2.819135
  15 C     6.0000    0    12.011   -5.301562   -3.656664   -0.594434
  16 C     6.0000    0    12.011    8.233212    2.340539    0.051616
  17 C     6.0000    0    12.011   -9.423509   -0.972653   -0.681524
  18 C     6.0000    0    12.011   -6.001878    3.672269    0.095085
  19 C     6.0000    0    12.011   10.185745   -1.366028   -2.181696
  20 C     6.0000    0    12.011   -0.343282   -2.918499    2.554626
  21 C     6.0000    0    12.011    1.428599   -0.467656   -4.327350
  22 C     6.0000    0    12.011   10.814404    1.177044   -0.871028
  23 C     6.0000    0    12.011   -5.382815    0.570195    3.655891
  24 C     6.0000    0    12.011  -10.434745    1.785959   -0.392271
  25 C     6.0000    0    12.011   -8.523712    3.709047   -1.360816
  26 C     6.0000    0    12.011    7.870696   -3.180165    1.534641
  27 C     6.0000    0    12.011    8.078005    5.132128   -0.585921
  28 C     6.0000    0    12.011  -10.462418   -1.943381   -3.239903
  29 C     6.0000    0    12.011  -10.492156   -2.708167    1.401423
  30 C     6.0000    0    12.011    7.735556    5.880132   -3.318174
  31 C     6.0000    0    12.011    8.356386    6.889148    1.219436
  32 H     1.0000    0     1.008   -2.194393    1.486668   -1.984091
  33 H     1.0000    0     1.008    3.703570   -0.348789    1.868631
  34 H     1.0000    0     1.008    6.086409    1.087600   -3.128937
  35 H     1.0000    0     1.008   -6.046447   -0.428420   -2.813048
  36 H     1.0000    0     1.008    2.178280   -5.235632   -3.254587
  37 H     1.0000    0     1.008    3.212402   -5.103313   -0.127693
  38 H     1.0000    0     1.008   -1.797190   -5.617872   -1.336749
  39 H     1.0000    0     1.008   -2.586000   -3.277103   -3.546542
  40 H     1.0000    0     1.008   -0.255808    2.236206    3.382948
  41 H     1.0000    0     1.008   -1.328455    4.630829    1.380386
  42 H     1.0000    0     1.008    2.096899    3.938849   -1.603792
  43 H     1.0000    0     1.008    3.368766    4.219122    1.434824
  44 H     1.0000    0     1.008    6.819850   -5.774595   -2.861474
  45 H     1.0000    0     1.008    6.073064   -3.187129   -4.770848
  46 H     1.0000    0     1.008   -6.383225   -5.016081   -1.718264
  47 H     1.0000    0     1.008   -5.428212   -4.315976    1.360686
  48 H     1.0000    0     1.008    8.137679    2.188588    2.113022
  49 H     1.0000    0     1.008   -4.614182    4.678969   -1.060288
  50 H     1.0000    0     1.008   -6.207114    4.787385    1.824725
  51 H     1.0000    0     1.008   10.067346   -1.109951   -4.232951
  52 H     1.0000    0     1.008   11.611156   -2.817646   -1.821993
  53 H     1.0000    0     1.008   -2.114524   -3.512644    3.419025
  54 H     1.0000    0     1.008    0.852308   -4.597917    2.475662
  55 H     1.0000    0     1.008    0.541648   -1.589583    3.856255
  56 H     1.0000    0     1.008    3.219241   -0.347201   -5.343106
  57 H     1.0000    0     1.008    0.223530   -1.742031   -5.415915
  58 H     1.0000    0     1.008    0.580836    1.407050   -4.401184
  59 H     1.0000    0     1.008   12.065605    0.903837    0.750694
  60 H     1.0000    0     1.008   11.795597    2.458417   -2.159517
  61 H     1.0000    0     1.008   -7.310457    1.060286    4.192339
  62 H     1.0000    0     1.008   -5.035151   -1.366535    4.267497
  63 H     1.0000    0     1.008   -4.113667    1.798619    4.730249
  64 H     1.0000    0     1.008  -12.181332    1.944356   -1.497623
  65 H     1.0000    0     1.008   -9.351081    5.609159   -1.278065
  66 H     1.0000    0     1.008   -8.201852    3.321114   -3.368365
  67 H     1.0000    0     1.008    6.053335   -3.475917    2.465225
  68 H     1.0000    0     1.008    8.975451   -1.905794    2.720187
  69 H     1.0000    0     1.008  -12.526125   -2.089527   -3.176369
  70 H     1.0000    0     1.008   -9.960087   -0.669401   -4.792379
  71 H     1.0000    0     1.008   -9.710229   -3.814342   -3.690010
  72 H     1.0000    0     1.008  -12.553972   -2.551060    1.475389
  73 H     1.0000    0     1.008  -10.039934   -4.681687    0.988850
  74 H     1.0000    0     1.008   -9.756276   -2.261798    3.272790
  75 H     1.0000    0     1.008  -11.085905    4.147348    2.421607
  76 H     1.0000    0     1.008    8.167205   -6.870655    0.977478
  77 H     1.0000    0     1.008    5.847990    5.371751   -4.000046
  78 H     1.0000    0     1.008    7.977279    7.916613   -3.564330
  79 H     1.0000    0     1.008    9.090161    4.910676   -4.549283
  80 H     1.0000    0     1.008    8.353298    8.894673    0.778441
  81 H     1.0000    0     1.008    8.585292    6.370203    3.193218
  82 H     1.0000    0     1.008   16.091173  -11.142031    7.707269
  83 C     6.0000    0    12.011   14.905483   -9.471651    7.997034
  84 H     1.0000    0     1.008   13.636285   -9.846072    9.587698
  85 H     1.0000    0     1.008   16.133937   -7.884427    8.500268
  86 C     6.0000    0    12.011   13.413095   -8.890785    5.615382
  87 H     1.0000    0     1.008   14.706975   -8.547211    4.027481
  88 H     1.0000    0     1.008   12.214632  -10.510317    5.110390
  89 O     8.0000    0    15.999   11.879366   -6.702346    6.050627
  90 H     1.0000    0     1.008   10.934702   -6.335692    4.506728
  91 H     1.0000    0     1.008  -20.938022    4.640827    5.958051
  92 C     6.0000    0    12.011  -20.057531    2.951168    5.152259
  93 H     1.0000    0     1.008  -20.190125    1.424965    6.542976
  94 H     1.0000    0     1.008  -21.130874    2.399338    3.471531
  95 C     6.0000    0    12.011  -17.317974    3.485617    4.482224
  96 H     1.0000    0     1.008  -17.208638    5.048798    3.118732
  97 H     1.0000    0     1.008  -16.267088    4.057730    6.179930
  98 O     8.0000    0    15.999  -16.219361    1.250260    3.420302
  99 H     1.0000    0     1.008  -14.449866    1.598965    3.016933

--------------------------------
INTERNAL COORDINATES (ANGSTROEM)
--------------------------------
 O      0   0   0     0.000000000000     0.00000000     0.00000000
 O      1   0   0    11.560273886924     0.00000000     0.00000000
 C      2   1   0     5.745803784032    10.66424406     0.00000000
 C      3   2   1     1.611402712633    46.23276142   141.47411644
 C      3   2   4     1.573058476807   135.33069198   291.81851369
 C      4   3   2     1.577551623058   108.02566269   284.79239749
 C      5   3   2     1.580526217204   118.07912177   211.54164627
 C      6   4   3     1.541474399729   111.06737649   172.04608580
 C      8   6   4     1.557943195961   112.34706070   301.66791349
 C      7   5   3     1.562991601722   107.38745091   309.87037239
 C      4   3   2     1.559726972144   111.30402526    45.85522711
 C      3   2   9     1.549643482439   114.09648319   112.28982019
 C      5   3   2     1.541099762767   110.57368586   344.61268098
 C     13   5   3     1.537440424875   112.73478935    55.88494565
 C      9   8   6     1.534900097508   108.23705781    60.53864868
 C     12   3   2     1.534507187888   113.84204373   143.17391450
 C      8   6   4     1.555043274944   120.50713424   178.64168550
 C     10   7   5     1.575561738708   116.92815922   188.50153942
 C      7   5   3     1.572068916837   107.45888658   193.83054660
 C      9   8   6     1.539912333361   100.95997735   182.74527916
 C      3   2   9     1.552711247820    65.47378236   210.48339544
 C      4   3   2     1.554363887601   111.48792985   163.65866404
 C     20   9   8     1.550072162532   104.47938664    39.88191537
 C      7   5   3     1.546182493862   112.85132888    75.05922196
 C      1   2   9     1.453801829350    70.75850565    48.86587927
 C     25   1   2     1.523478204755   110.43688626   288.01378123
 C      2   1  25     1.444891626423    38.34646824    93.03948003
 C     17   8   6     1.517503532895   117.88735240   282.18143432
 C     18  10   7     1.548867329100   107.37788080   151.61498318
 C     18  10   7     1.542139088006   113.70839581   270.13183152
 C     28  17   8     1.509963214221   118.33091762   312.96481869
 C     28  17   8     1.341224789478   120.69946831   136.01689812
 H      5   3   2     1.094333987237   105.00185224    98.70113391
 H      6   4   3     1.094331084709   107.15152924    55.95680094
 H      8   6   4     1.096155082021   107.88583235    56.79913935
 H     10   7   5     1.099378144642   104.04700504   302.91836866
 H     11   4   3     1.095086672923   108.98466196    69.73863464
 H     11   4   3     1.091770146213   110.34141252   313.97368919
 H     12   3   2     1.095798269125   109.51656600    20.41155025
 H     12   3   2     1.093866383991   110.16437288   263.65942723
 H     13   5   3     1.094722022569   110.42765279   293.91222129
 H     13   5   3     1.094606470590   110.04644570   177.42195550
 H     14  13   5     1.096280642246   109.61434152    70.34071595
 H     14  13   5     1.093593719650   108.94075302   185.96868015
 H     15   9   8     1.097329889245   111.29234593   181.50641961
 H     15   9   8     1.095553580908   108.33108278    65.81014177
 H     16  12   3     1.094898628657   108.14403237   178.88680244
 H     16  12   3     1.093903794615   110.87076433   294.44505381
 H     17   8   6     1.094976189238   109.01922883    44.18843297
 H     19   7   5     1.094006817121   110.22422193    10.12470641
 H     19   7   5     1.094419779549   109.27396181   254.32149412
 H     20   9   8     1.095695578774   109.10078646   281.84933140
 H     20   9   8     1.093282818855   112.89630258   162.53871910
 H     21   3   2     1.089320252022   110.93287098   203.02203294
 H     21   3   2     1.091711615280   111.21266905   321.04176172
 H     21   3   2     1.090073624263   113.69386759    82.52242213
 H     22   4   3     1.091269278079   110.84095577   183.10187422
 H     22   4   3     1.092362805967   110.97155066   301.16580468
 H     22   4   3     1.089472774526   113.90956183    62.81450510
 H     23  20   9     1.093506785419   111.48879157    99.37271564
 H     23  20   9     1.092832107817   111.19096772   218.05702476
 H     24   7   5     1.090126587373   110.40478571   167.89689247
 H     24   7   5     1.090394361050   113.32900308   288.81986117
 H     24   7   5     1.094003632722   110.34263154    49.42441352
 H     25   1   2     1.097000840585   106.46770582   169.58328525
 H     26  25   1     1.097556604800   109.49571553   299.50292678
 H     26  25   1     1.095324870560   107.71726739   184.88986336
 H     27   2   1     1.091729517141   108.76187123    25.28527741
 H     27   2   1     1.090929791160   104.76956720   140.03247364
 H     29  18  10     1.095318088821   110.51674637   175.94652754
 H     29  18  10     1.095478957274   111.42431992   295.98436759
 H     29  18  10     1.093347068948   111.19376179    56.26259169
 H     30  18  10     1.094928671196   110.22696005   177.94281096
 H     30  18  10     1.093427155130   110.23237589   296.23604419
 H     30  18  10     1.089999783216   112.91123266    57.21200963
 H      1   2  27     0.966220267445   110.40754446   350.78866343
 H      2   1  76     0.965068305758    73.44382542   193.52325983
 H     31  28  17     1.095576665316   111.12570231    69.50214021
 H     31  28  17     1.093013531150   111.00997500   189.75947441
 H     31  28  17     1.096103350098   111.58858390   310.67797169
 H     32  28  17     1.086633740717   121.59516564   176.59112883
 H     32  28  17     1.086749410315   121.44387565   356.25407076
 H      2   1  76     5.699315952504   139.61664023   107.10651490
 C     83   2   1     1.094769441708    45.23709989   309.54675130
 H     84  83   2     1.094932398112   108.24761590   122.75945092
 H     84  83   2     1.094978237605   108.24897481   240.08686938
 C     84  83   2     1.518738162970   110.19435243     1.41122125
 H     87  84  83     1.099059096304   110.11999277   300.65416565
 H     87  84  83     1.099136848105   110.11982700    59.16817195
 O     87  84  83     1.432793169255   108.95001228   179.92509150
 H     90  87  84     0.977252871915   108.41174639   179.63564679
 H     76   1   2     5.545367666272    94.17190354   199.99039829
 C     92  76   1     1.094708159459    55.24497588   350.68729732
 H     93  92  76     1.094894748858   108.26364073   123.53293667
 H     93  92  76     1.094953215798   108.26640887   240.87855991
 C     93  92  76     1.519001567522   110.18542067     2.19646098
 H     96  93  92     1.099186738459   110.09480259   301.08752838
 H     96  93  92     1.099094595472   110.08271846    59.56784295
 O     96  93  92     1.432834674813   108.96980026   180.33144860
 H     99  96  93     0.977963617534   108.56117338   180.84432486

---------------------------
INTERNAL COORDINATES (A.U.)
---------------------------
 O      0   0   0     0.000000000000     0.00000000     0.00000000
 O      1   0   0    21.845751679407     0.00000000     0.00000000
 C      2   1   0    10.857995571069    10.66424406     0.00000000
 C      3   2   1     3.045109818334    46.23276142   141.47411644
 C      3   2   4     2.972649713808   135.33069198   291.81851369
 C      4   3   2     2.981140529703   108.02566269   284.79239749
 C      5   3   2     2.986761697998   118.07912177   211.54164627
 C      6   4   3     2.912964457939   111.06737649   172.04608580
 C      8   6   4     2.944085972572   112.34706070   301.66791349
 C      7   5   3     2.953626076874   107.38745091   309.87037239
 C      4   3   2     2.947456821043   111.30402526    45.85522711
 C      3   2   9     2.928401787027   114.09648319   112.28982019
 C      5   3   2     2.912256496682   110.57368586   344.61268098
 C     13   5   3     2.905341350233   112.73478935    55.88494565
 C      9   8   6     2.900540827219   108.23705781    60.53864868
 C     12   3   2     2.899798335643   113.84204373   143.17391450
 C      8   6   4     2.938605916040   120.50713424   178.64168550
 C     10   7   5     2.977380193243   116.92815922   188.50153942
 C      7   5   3     2.970779716473   107.45888658   193.83054660
 C      9   8   6     2.910012580300   100.95997735   182.74527916
 C      3   2   9     2.934199023438    65.47378236   210.48339544
 C      4   3   2     2.937322060023   111.48792985   163.65866404
 C     20   9   8     2.929211875000   104.47938664    39.88191537
 C      7   5   3     2.921861466462   112.85132888    75.05922196
 C      1   2   9     2.747287310464    70.75850565    48.86587927
 C     25   1   2     2.878956577986   110.43688626   288.01378123
 C      2   1  25     2.730449467135    38.34646824    93.03948003
 C     17   8   6     2.867666084430   117.88735240   282.18143432
 C     18  10   7     2.926935069777   107.37788080   151.61498318
 C     18  10   7     2.914220536746   113.70839581   270.13183152
 C     28  17   8     2.853416947173   118.33091762   312.96481869
 C     28  17   8     2.534547536139   120.69946831   136.01689812
 H      5   3   2     2.067991534920   105.00185224    98.70113391
 H      6   4   3     2.067986049938   107.15152924    55.95680094
 H      8   6   4     2.071432905326   107.88583235    56.79913935
 H     10   7   5     2.077523610991   104.04700504   302.91836866
 H     11   4   3     2.069413904732   108.98466196    69.73863464
 H     11   4   3     2.063146577535   110.34141252   313.97368919
 H     12   3   2     2.070758626672   109.51656600    20.41155025
 H     12   3   2     2.067107892846   110.16437288   263.65942723
 H     13   5   3     2.068724815428   110.42765279   293.91222129
 H     13   5   3     2.068506453834   110.04644570   177.42195550
 H     14  13   5     2.071670179765   109.61434152    70.34071595
 H     14  13   5     2.066592631914   108.94075302   185.96868015
 H     15   9   8     2.073652969239   111.29234593   181.50641961
 H     15   9   8     2.070296232953   108.33108278    65.81014177
 H     16  12   3     2.069058552568   108.14403237   178.88680244
 H     16  12   3     2.067178588680   110.87076433   294.44505381
 H     17   8   6     2.069205120824   109.01922883    44.18843297
 H     19   7   5     2.067373273001   110.22422193    10.12470641
 H     19   7   5     2.068153658894   109.27396181   254.32149412
 H     20   9   8     2.070564570031   109.10078646   281.84933140
 H     20   9   8     2.066005114557   112.89630258   162.53871910
 H     21   3   2     2.058516948455   110.93287098   203.02203294
 H     21   3   2     2.063035970100   111.21266905   321.04176172
 H     21   3   2     2.059940615667   113.69386759    82.52242213
 H     22   4   3     2.062200073930   110.84095577   183.10187422
 H     22   4   3     2.064266542160   110.97155066   301.16580468
 H     22   4   3     2.058805174218   113.90956183    62.81450510
 H     23  20   9     2.066428350027   111.48879157    99.37271564
 H     23  20   9     2.065153394129   111.19096772   218.05702476
 H     24   7   5     2.060040701441   110.40478571   167.89689247
 H     24   7   5     2.060546720356   113.32900308   288.81986117
 H     24   7   5     2.067367255359   110.34263154    49.42441352
 H     25   1   2     2.073031157388   106.46770582   169.58328525
 H     26  25   1     2.074081399549   109.49571553   299.50292678
 H     26  25   1     2.069864033031   107.71726739   184.88986336
 H     27   2   1     2.063069799715   108.76187123    25.28527741
 H     27   2   1     2.061558536629   104.76956720   140.03247364
 H     29  18  10     2.069851217402   110.51674637   175.94652754
 H     29  18  10     2.070155214721   111.42431992   295.98436759
 H     29  18  10     2.066126529637   111.19376179    56.26259169
 H     30  18  10     2.069115324738   110.22696005   177.94281096
 H     30  18  10     2.066277870589   110.23237589   296.23604419
 H     30  18  10     2.059801076311   112.91123266    57.21200963
 H      1   2  27     1.825891690516   110.40754446   350.78866343
 H      2   1  76     1.823714798409    73.44382542   193.52325983
 H     31  28  17     2.070339856163   111.12570231    69.50214021
 H     31  28  17     2.065496234544   111.00997500   189.75947441
 H     31  28  17     2.071335146160   111.58858390   310.67797169
 H     32  28  17     2.053440177834   121.59516564   176.59112883
 H     32  28  17     2.053658761696   121.44387565   356.25407076
 H      2   1  76    10.770146300921   139.61664023   107.10651490
 C     83   2   1     2.068814424614    45.23709989   309.54675130
 H     84  83   2     2.069122367589   108.24761590   122.75945092
 H     84  83   2     2.069208991678   108.24897481   240.08686938
 C     84  83   2     2.869999197148   110.19435243     1.41122125
 H     87  84  83     2.076920697010   110.11999277   300.65416565
 H     87  84  83     2.077067626620   110.11982700    59.16817195
 O     87  84  83     2.707586696445   108.95001228   179.92509150
 H     90  87  84     1.846740291507   108.41174639   179.63564679
 H     76   1   2    10.479226201156    94.17190354   199.99039829
 C     92  76   1     2.068698617946    55.24497588   350.68729732
 H     93  92  76     2.069051220809   108.26364073   123.53293667
 H     93  92  76     2.069161707314   108.26640887   240.87855991
 C     93  92  76     2.870496959613   110.18542067     2.19646098
 H     96  93  92     2.077161905726   110.09480259   301.08752838
 H     96  93  92     2.076987780714   110.08271846    59.56784295
 O     96  93  92     2.707665130582   108.96980026   180.33144860
 H     99  96  93     1.848083406079   108.56117338   180.84432486

---------------------
BASIS SET INFORMATION
---------------------
There are 3 groups of distinct atoms

 Group   1 Type O   : 11s5p2d contracted to 4s3p2d pattern {6311/311/11}
 Group   2 Type C   : 11s5p2d contracted to 4s3p2d pattern {6311/311/11}
 Group   3 Type H   : 5s2p contracted to 3s2p pattern {311/11}

Atom   0O    basis set group =>   1
Atom   1O    basis set group =>   1
Atom   2C    basis set group =>   2
Atom   3C    basis set group =>   2
Atom   4C    basis set group =>   2
Atom   5C    basis set group =>   2
Atom   6C    basis set group =>   2
Atom   7C    basis set group =>   2
Atom   8C    basis set group =>   2
Atom   9C    basis set group =>   2
Atom  10C    basis set group =>   2
Atom  11C    basis set group =>   2
Atom  12C    basis set group =>   2
Atom  13C    basis set group =>   2
Atom  14C    basis set group =>   2
Atom  15C    basis set group =>   2
Atom  16C    basis set group =>   2
Atom  17C    basis set group =>   2
Atom  18C    basis set group =>   2
Atom  19C    basis set group =>   2
Atom  20C    basis set group =>   2
Atom  21C    basis set group =>   2
Atom  22C    basis set group =>   2
Atom  23C    basis set group =>   2
Atom  24C    basis set group =>   2
Atom  25C    basis set group =>   2
Atom  26C    basis set group =>   2
Atom  27C    basis set group =>   2
Atom  28C    basis set group =>   2
Atom  29C    basis set group =>   2
Atom  30C    basis set group =>   2
Atom  31C    basis set group =>   2
Atom  32H    basis set group =>   3
Atom  33H    basis set group =>   3
Atom  34H    basis set group =>   3
Atom  35H    basis set group =>   3
Atom  36H    basis set group =>   3
Atom  37H    basis set group =>   3
Atom  38H    basis set group =>   3
Atom  39H    basis set group =>   3
Atom  40H    basis set group =>   3
Atom  41H    basis set group =>   3
Atom  42H    basis set group =>   3
Atom  43H    basis set group =>   3
Atom  44H    basis set group =>   3
Atom  45H    basis set group =>   3
Atom  46H    basis set group =>   3
Atom  47H    basis set group =>   3
Atom  48H    basis set group =>   3
Atom  49H    basis set group =>   3
Atom  50H    basis set group =>   3
Atom  51H    basis set group =>   3
Atom  52H    basis set group =>   3
Atom  53H    basis set group =>   3
Atom  54H    basis set group =>   3
Atom  55H    basis set group =>   3
Atom  56H    basis set group =>   3
Atom  57H    basis set group =>   3
Atom  58H    basis set group =>   3
Atom  59H    basis set group =>   3
Atom  60H    basis set group =>   3
Atom  61H    basis set group =>   3
Atom  62H    basis set group =>   3
Atom  63H    basis set group =>   3
Atom  64H    basis set group =>   3
Atom  65H    basis set group =>   3
Atom  66H    basis set group =>   3
Atom  67H    basis set group =>   3
Atom  68H    basis set group =>   3
Atom  69H    basis set group =>   3
Atom  70H    basis set group =>   3
Atom  71H    basis set group =>   3
Atom  72H    basis set group =>   3
Atom  73H    basis set group =>   3
Atom  74H    basis set group =>   3
Atom  75H    basis set group =>   3
Atom  76H    basis set group =>   3
Atom  77H    basis set group =>   3
Atom  78H    basis set group =>   3
Atom  79H    basis set group =>   3
Atom  80H    basis set group =>   3
Atom  81H    basis set group =>   3
Atom  82H    basis set group =>   3
Atom  83C    basis set group =>   2
Atom  84H    basis set group =>   3
Atom  85H    basis set group =>   3
Atom  86C    basis set group =>   2
Atom  87H    basis set group =>   3
Atom  88H    basis set group =>   3
Atom  89O    basis set group =>   1
Atom  90H    basis set group =>   3
Atom  91H    basis set group =>   3
Atom  92C    basis set group =>   2
Atom  93H    basis set group =>   3
Atom  94H    basis set group =>   3
Atom  95C    basis set group =>   2
Atom  96H    basis set group =>   3
Atom  97H    basis set group =>   3
Atom  98O    basis set group =>   1
Atom  99H    basis set group =>   3
---------------------------------
AUXILIARY/J BASIS SET INFORMATION
---------------------------------
There are 3 groups of distinct atoms

 Group   1 Type O   : 12s5p4d2f1g contracted to 6s4p3d1f1g pattern {711111/2111/211/2/1}
 Group   2 Type C   : 12s5p4d2f1g contracted to 6s4p3d1f1g pattern {711111/2111/211/2/1}
 Group   3 Type H   : 5s2p1d contracted to 3s1p1d pattern {311/2/1}

Atom   0O    basis set group =>   1
Atom   1O    basis set group =>   1
Atom   2C    basis set group =>   2
Atom   3C    basis set group =>   2
Atom   4C    basis set group =>   2
Atom   5C    basis set group =>   2
Atom   6C    basis set group =>   2
Atom   7C    basis set group =>   2
Atom   8C    basis set group =>   2
Atom   9C    basis set group =>   2
Atom  10C    basis set group =>   2
Atom  11C    basis set group =>   2
Atom  12C    basis set group =>   2
Atom  13C    basis set group =>   2
Atom  14C    basis set group =>   2
Atom  15C    basis set group =>   2
Atom  16C    basis set group =>   2
Atom  17C    basis set group =>   2
Atom  18C    basis set group =>   2
Atom  19C    basis set group =>   2
Atom  20C    basis set group =>   2
Atom  21C    basis set group =>   2
Atom  22C    basis set group =>   2
Atom  23C    basis set group =>   2
Atom  24C    basis set group =>   2
Atom  25C    basis set group =>   2
Atom  26C    basis set group =>   2
Atom  27C    basis set group =>   2
Atom  28C    basis set group =>   2
Atom  29C    basis set group =>   2
Atom  30C    basis set group =>   2
Atom  31C    basis set group =>   2
Atom  32H    basis set group =>   3
Atom  33H    basis set group =>   3
Atom  34H    basis set group =>   3
Atom  35H    basis set group =>   3
Atom  36H    basis set group =>   3
Atom  37H    basis set group =>   3
Atom  38H    basis set group =>   3
Atom  39H    basis set group =>   3
Atom  40H    basis set group =>   3
Atom  41H    basis set group =>   3
Atom  42H    basis set group =>   3
Atom  43H    basis set group =>   3
Atom  44H    basis set group =>   3
Atom  45H    basis set group =>   3
Atom  46H    basis set group =>   3
Atom  47H    basis set group =>   3
Atom  48H    basis set group =>   3
Atom  49H    basis set group =>   3
Atom  50H    basis set group =>   3
Atom  51H    basis set group =>   3
Atom  52H    basis set group =>   3
Atom  53H    basis set group =>   3
Atom  54H    basis set group =>   3
Atom  55H    basis set group =>   3
Atom  56H    basis set group =>   3
Atom  57H    basis set group =>   3
Atom  58H    basis set group =>   3
Atom  59H    basis set group =>   3
Atom  60H    basis set group =>   3
Atom  61H    basis set group =>   3
Atom  62H    basis set group =>   3
Atom  63H    basis set group =>   3
Atom  64H    basis set group =>   3
Atom  65H    basis set group =>   3
Atom  66H    basis set group =>   3
Atom  67H    basis set group =>   3
Atom  68H    basis set group =>   3
Atom  69H    basis set group =>   3
Atom  70H    basis set group =>   3
Atom  71H    basis set group =>   3
Atom  72H    basis set group =>   3
Atom  73H    basis set group =>   3
Atom  74H    basis set group =>   3
Atom  75H    basis set group =>   3
Atom  76H    basis set group =>   3
Atom  77H    basis set group =>   3
Atom  78H    basis set group =>   3
Atom  79H    basis set group =>   3
Atom  80H    basis set group =>   3
Atom  81H    basis set group =>   3
Atom  82H    basis set group =>   3
Atom  83C    basis set group =>   2
Atom  84H    basis set group =>   3
Atom  85H    basis set group =>   3
Atom  86C    basis set group =>   2
Atom  87H    basis set group =>   3
Atom  88H    basis set group =>   3
Atom  89O    basis set group =>   1
Atom  90H    basis set group =>   3
Atom  91H    basis set group =>   3
Atom  92C    basis set group =>   2
Atom  93H    basis set group =>   3
Atom  94H    basis set group =>   3
Atom  95C    basis set group =>   2
Atom  96H    basis set group =>   3
Atom  97H    basis set group =>   3
Atom  98O    basis set group =>   1
Atom  99H    basis set group =>   3

Checking for AutoStart:
The File: betulin_eth_freq.gbw exists
Trying to determine its content:
     ... Fine, the file contains calculation information
     ... Fine, the calculation information was read
     ... Fine, the file contains a basis set
     ... Fine, the basis set was read
     ... Fine, the file contains a geometry
     ... Fine, the geometry was read
     ... Fine, the file contains a set of orbitals
     ... Fine, the orbitals can be read
     => possible old guess file was deleted
     => GBW file was renamed to GES file
     => GES file is set as startup file
     => Guess is set to MORead
     ... now leaving AutoStart



           ************************************************************
           *        Program running with 10 parallel MPI-processes    *
           *              working on a common directory               *
           ************************************************************
------------------------------------------------------------------------------
                           ORCA GTO INTEGRAL CALCULATION
                           -- RI-GTO INTEGRALS CHOSEN --
------------------------------------------------------------------------------
------------------------------------------------------------------------------
                   ___                                                        
                  /   \      - P O W E R E D   B Y -                         
                 /     \                                                     
                 |  |  |   _    _      __       _____    __    __             
                 |  |  |  | |  | |    /  \     |  _  \  |  |  /  |          
                  \  \/   | |  | |   /    \    | | | |  |  | /  /          
                 / \  \   | |__| |  /  /\  \   | |_| |  |  |/  /          
                |  |  |   |  __  | /  /__\  \  |    /   |      \           
                |  |  |   | |  | | |   __   |  |    \   |  |\   \          
                \     /   | |  | | |  |  |  |  | |\  \  |  | \   \       
                 \___/    |_|  |_| |__|  |__|  |_| \__\ |__|  \__/        
                                                                              
                      - O R C A' S   B I G   F R I E N D -                    
                                      &                                       
                       - I N T E G R A L  F E E D E R -                       
                                                                              
 v1 FN, 2020, v2 2021                                                         
------------------------------------------------------------------------------


Reading SHARK input file betulin_eth_freq.SHARKINP.tmp ... ok
----------------------
SHARK INTEGRAL PACKAGE
----------------------

Number of atoms                             ...    100
Number of basis functions                   ...   1432
Number of shells                            ...    652
Maximum angular momentum                    ...      2
Integral batch strategy                     ... SHARK/LIBINT Hybrid
RI-J (if used) integral strategy            ... SPLIT-RIJ (Revised 2003 algorithm where possible)
Printlevel                                  ...      1
Contraction scheme used                     ... SEGMENTED contraction
Coulomb Range Separation                    ... NOT USED
Exchange Range Separation                   ... NOT USED
Finite Nucleus Model                        ... NOT USED
Auxiliary Coulomb fitting basis             ... AVAILABLE
   # of basis functions in Aux-J            ...   2544
   # of shells in Aux-J                     ...    880
   Maximum angular momentum in Aux-J        ...      4
Auxiliary J/K fitting basis                 ... NOT available
Auxiliary Correlation fitting basis         ... NOT available
Auxiliary 'external' fitting basis          ... NOT available
Integral threshold                          ...     1.000000e-10
Primitive cut-off                           ...     1.000000e-11
Primitive pair pre-selection threshold      ...     1.000000e-11

Calculating pre-screening integrals         ... done (  0.1 sec) Dimension = 652
Organizing shell pair data                  ... done (  0.6 sec)
Shell pair information
Total number of shell pairs                 ...    212878
Shell pairs after pre-screening             ...    136416
Total number of primitive shell pairs       ...    626505
Primitive shell pairs kept                  ...    266563
          la=0 lb=0:  40838 shell pairs
          la=1 lb=0:  52505 shell pairs
          la=1 lb=1:  16531 shell pairs
          la=2 lb=0:  15663 shell pairs
          la=2 lb=1:   9529 shell pairs
          la=2 lb=2:   1350 shell pairs

Calculating one electron integrals          ... done (  0.2 sec)
Calculating RI/J V-Matrix + Cholesky decomp.... done (  0.2 sec)
Calculating Nuclear repulsion               ... done (  0.0 sec) ENN=   4730.120550450388 Eh

SHARK setup successfully completed in   1.5 seconds

Maximum memory used throughout the entire GTOINT-calculation: 184.8 MB


           ************************************************************
           *        Program running with 10 parallel MPI-processes    *
           *              working on a common directory               *
           ************************************************************
-------------------------------------------------------------------------------
                                 ORCA SCF
-------------------------------------------------------------------------------

------------
SCF SETTINGS
------------
Hamiltonian:
 Density Functional     Method          .... DFT(GTOs)
 Exchange Functional    Exchange        .... B88
   X-Alpha parameter    XAlpha          ....  0.666667
   Becke's b parameter  XBeta           ....  0.004200
 Correlation Functional Correlation     .... LYP
 LDA part of GGA corr.  LDAOpt          .... VWN-5
 Gradients option       PostSCFGGA      .... off
 Hybrid DFT is turned on
   Fraction HF Exchange ScalHFX         ....  0.200000
   Scaling of DF-GGA-X  ScalDFX         ....  0.720000
   Scaling of DF-GGA-C  ScalDFC         ....  0.810000
   Scaling of DF-LDA-C  ScalLDAC        ....  1.000000
   Perturbative correction              ....  0.000000
   Density functional embedding theory  .... OFF
   NL short-range parameter             ....  4.800000
 RI-approximation to the Coulomb term is turned on
   Number of AuxJ basis functions       .... 2544
   RIJ-COSX (HFX calculated with COS-X)).... on


General Settings:
 Integral files         IntName         .... betulin_eth_freq
 Hartree-Fock type      HFTyp           .... RHF
 Total Charge           Charge          ....    0
 Multiplicity           Mult            ....    1
 Number of Electrons    NEL             ....  298
 Basis Dimension        Dim             .... 1432
 Nuclear Repulsion      ENuc            ....   4730.1205504504 Eh

Convergence Acceleration:
 DIIS                   CNVDIIS         .... on
   Start iteration      DIISMaxIt       ....    12
   Startup error        DIISStart       ....  0.200000
   # of expansion vecs  DIISMaxEq       ....     5
   Bias factor          DIISBfac        ....   1.050
   Max. coefficient     DIISMaxC        ....  10.000
 Trust-Rad. Augm. Hess. CNVTRAH         .... auto
   Auto Start mean grad. ratio tolernc. ....  1.125000
   Auto Start start iteration           ....     1
   Auto Start num. interpolation iter.  ....    10
   Max. Number of Micro iterations      ....    16
   Max. Number of Macro iterations      .... Maxiter - #DIIS iter
   Number of Davidson start vectors     ....     2
   Converg. threshold I  (grad. norm)   ....   5.000e-05
   Converg. threshold II (energy diff.) ....   1.000e-06
   Grad. Scal. Fac. for Micro threshold ....   0.100
   Minimum threshold for Micro iter.    ....   0.010
   NR start threshold (gradient norm)   ....   0.001
   Initial trust radius                 ....   0.400
   Minimum AH scaling param. (alpha)    ....   1.000
   Maximum AH scaling param. (alpha)    .... 1000.000
   Orbital update algorithm             .... Taylor
   White noise on init. David. guess    .... on
   Maximum white noise                  ....   0.010
   Quad. conv. algorithm                .... NR
 SOSCF                  CNVSOSCF        .... on
   Start iteration      SOSCFMaxIt      ....   150
   Startup grad/error   SOSCFStart      ....  0.003300
 Level Shifting         CNVShift        .... on
   Level shift para.    LevelShift      ....    0.2500
   Turn off err/grad.   ShiftErr        ....    0.0010
 Zerner damping         CNVZerner       .... off
 Static damping         CNVDamp         .... on
   Fraction old density DampFac         ....    0.7000
   Max. Damping (<1)    DampMax         ....    0.9800
   Min. Damping (>=0)   DampMin         ....    0.0000
   Turn off err/grad.   DampErr         ....    0.1000
 Fernandez-Rico         CNVRico         .... off

SCF Procedure:
 Maximum # iterations   MaxIter         ....   125
 SCF integral mode      SCFMode         .... Direct
   Integral package                     .... SHARK and LIBINT hybrid scheme
 Reset frequency        DirectResetFreq ....    20
 Integral Threshold     Thresh          ....  1.000e-10 Eh
 Primitive CutOff       TCut            ....  1.000e-11 Eh

Convergence Tolerance:
 Convergence Check Mode ConvCheckMode   .... Total+1el-Energy
 Convergence forced     ConvForced      .... 0
 Energy Change          TolE            ....  1.000e-06 Eh
 1-El. energy change                    ....  1.000e-03 Eh
 Orbital Gradient       TolG            ....  5.000e-05
 Orbital Rotation angle TolX            ....  5.000e-05
 DIIS Error             TolErr          ....  1.000e-06


Diagonalization of the overlap matrix:
Smallest eigenvalue                        ... 3.796e-08
Time for diagonalization                   ...    0.155 sec
Threshold for overlap eigenvalues          ... 1.000e-08
Number of eigenvalues below threshold      ... 0
Time for construction of square roots      ...    0.133 sec
Total time needed                          ...    0.297 sec

---------------------
INITIAL GUESS: MOREAD
---------------------
Guess MOs are being read from file: betulin_eth_freq.ges
Input Geometry matches current geometry (good)
Input basis set matches current basis set (good)
MOs were renormalized
MOs were reorthogonalized (Cholesky)
                      ------------------
                      INITIAL GUESS DONE (   1.0 sec)
                      ------------------
-------------------
DFT GRID GENERATION
-------------------

General Integration Accuracy     IntAcc      ... 4.388
Radial Grid Type                 RadialGrid  ... OptM3 with GC (2021)
Angular Grid (max. ang.)         AngularGrid ... 4 (Lebedev-302)
Angular grid pruning method      GridPruning ... 4 (adaptive)
Weight generation scheme         WeightScheme... Becke
Basis function cutoff            BFCut       ... 1.0000e-10
Integration weight cutoff        WCut        ... 1.0000e-14
Angular grids for H and He will be reduced by one unit
Partially contracted basis set               ... off
Rotationally invariant grid construction     ... off

Total number of grid points                  ...   432388
Total number of batches                      ...     6807
Average number of points per batch           ...       63
Average number of grid points per atom       ...     4324
Time for grid setup =    2.785 sec

--------------------
COSX GRID GENERATION
--------------------

GRIDX 1
-------
General Integration Accuracy     IntAcc      ... 3.816
Radial Grid Type                 RadialGrid  ... OptM3 with GC (2021)
Angular Grid (max. ang.)         AngularGrid ... 1 (Lebedev-50)
Angular grid pruning method      GridPruning ... 4 (adaptive)
Weight generation scheme         WeightScheme... Becke
Basis function cutoff            BFCut       ... 1.0000e-10
Integration weight cutoff        WCut        ... 1.0000e-14
Angular grids for H and He will be reduced by one unit
Partially contracted basis set               ... on
Rotationally invariant grid construction     ... off

Total number of grid points                  ...    53729
Total number of batches                      ...      890
Average number of points per batch           ...       60
Average number of grid points per atom       ...      537
UseSFitting                                  ... on

GRIDX 2
-------
General Integration Accuracy     IntAcc      ... 4.020
Radial Grid Type                 RadialGrid  ... OptM3 with GC (2021)
Angular Grid (max. ang.)         AngularGrid ... 2 (Lebedev-110)
Angular grid pruning method      GridPruning ... 4 (adaptive)
Weight generation scheme         WeightScheme... Becke
Basis function cutoff            BFCut       ... 1.0000e-10
Integration weight cutoff        WCut        ... 1.0000e-14
Angular grids for H and He will be reduced by one unit
Partially contracted basis set               ... on
Rotationally invariant grid construction     ... off

Total number of grid points                  ...   118157
Total number of batches                      ...     1898
Average number of points per batch           ...       62
Average number of grid points per atom       ...     1182
UseSFitting                                  ... on

GRIDX 3
-------
General Integration Accuracy     IntAcc      ... 4.338
Radial Grid Type                 RadialGrid  ... OptM3 with GC (2021)
Angular Grid (max. ang.)         AngularGrid ... 3 (Lebedev-194)
Angular grid pruning method      GridPruning ... 4 (adaptive)
Weight generation scheme         WeightScheme... Becke
Basis function cutoff            BFCut       ... 1.0000e-10
Integration weight cutoff        WCut        ... 1.0000e-14
Angular grids for H and He will be reduced by one unit
Partially contracted basis set               ... on
Rotationally invariant grid construction     ... off

Total number of grid points                  ...   261566
Total number of batches                      ...     4142
Average number of points per batch           ...       63
Average number of grid points per atom       ...     2616
UseSFitting                                  ... on

Time for X-Grid setup             =    5.120 sec


--------------------
CPCM SOLVATION MODEL
--------------------
CPCM parameters:
  Epsilon                                         ...      80.4000
  Refrac                                          ...       1.3300
  Rsolv                                           ...       1.3000
  Surface type                                    ... GAUSSIAN VDW
  Epsilon function type                           ...         CPCM
Radii:
 Radius for O  used is    3.4469 Bohr (=   1.8240 Ang.)
 Radius for C  used is    3.8550 Bohr (=   2.0400 Ang.)
 Radius for H  used is    2.4944 Bohr (=   1.3200 Ang.)
Calculating surface                               ...        done! (  0.0s)
GEPOL surface points                              ...         4689
GEPOL Volume                                      ...    4702.4913
GEPOL Surface-area                                ...    2253.1005
Calculating surface distance matrix               ...        done! (  0.1s)
Performing Cholesky decomposition & store         ...        done! (  0.7s)
Overall time for CPCM initialization              ...                 0.8s
--------------
SCF ITERATIONS
--------------
ITER       Energy         Delta-E        Max-DP      RMS-DP      [F,P]     Damp
               ***  Starting incremental Fock matrix formation  ***
                      *** Initiating the SOSCF procedure ***
                      *** Re-Reading the Fockian *** 
                      *** Removing any level shift *** 
ITER      Energy       Delta-E        Grad      Rot      Max-DP    RMS-DP
  0  -1632.89930714 -1632.8993071402  0.000000  0.000000  0.013879  0.000032
               *** Restarting incremental Fock matrix formation ***
                 **** Energy Check signals convergence ****
              ***Rediagonalizing the Fockian in SOSCF/NRSCF***

               *****************************************************
               *                     SUCCESS                       *
               *           SCF CONVERGED AFTER   1 CYCLES          *
               *****************************************************

Old exchange energy                            =    -46.305157744 Eh
New exchange energy                            =    -46.305212046 Eh
Exchange energy change after final integration =     -0.000054302 Eh
Total energy after final integration           =  -1632.899361438 Eh
Final COS-X integration done in                =    94.788 sec

----------------
TOTAL SCF ENERGY
----------------

Total Energy       :        -1632.89936144 Eh          -44433.45058 eV

Components:
Nuclear Repulsion  :         4730.12055045 Eh          128713.12383 eV
Electronic Energy  :        -6363.01991189 Eh         -173146.57440 eV
One Electron Energy:       -11630.44779892 Eh         -316480.57417 eV
Two Electron Energy:         5267.42788703 Eh          143333.99977 eV
Max COSX asymmetry :            0.00008719 Eh               0.00237 eV
CPCM Dielectric    :           -0.03339471 Eh              -0.90872 eV

Virial components:
Potential Energy   :        -3256.09675303 Eh          -88602.89713 eV
Kinetic Energy     :         1623.19739160 Eh           44169.44656 eV
Virial Ratio       :            2.00597707


DFT components:
N(Alpha)           :      149.000381345667 electrons
N(Beta)            :      149.000381345667 electrons
N(Total)           :      298.000762691334 electrons
E(X)               :     -183.564377827399 Eh       
E(C)               :      -11.614631488188 Eh       
E(XC)              :     -195.179009315587 Eh       
DFET-embed. en.    :        0.000000000000 Eh       
CPCM Solvation Model Properties:
Surface-charge          :           -0.06526790
Charge-correction       :           -0.00005396 Eh              -0.00147 eV
Free-energy (cav+disp)  :  This term is not implemented in the current solvation scheme

---------------
SCF CONVERGENCE
---------------

  Last Energy change         ...    4.3847e-09  Tolerance :   1.0000e-06
  Last MAX-Density change    ...    8.5265e-14  Tolerance :   1.0000e-05
  Last RMS-Density change    ...    1.4181e-16  Tolerance :   1.0000e-06
  Last Orbital Gradient      ...    6.6425e-08  Tolerance :   5.0000e-05
  Last Orbital Rotation      ...    7.0044e-08  Tolerance :   5.0000e-05

             **** THE GBW FILE WAS UPDATED (betulin_eth_freq.gbw) ****
             **** DENSITY betulin_eth_freq.scfp WAS UPDATED ****
             **** ENERGY FILE WAS UPDATED (betulin_eth_freq.en.tmp) ****
             **** THE GBW FILE WAS UPDATED (betulin_eth_freq.gbw) ****
             **** DENSITY betulin_eth_freq.scfp WAS UPDATED ****
----------------
ORBITAL ENERGIES
----------------

  NO   OCC          E(Eh)            E(eV) 
   0   2.0000     -19.161724      -521.4170 
   1   2.0000     -19.155944      -521.2597 
   2   2.0000     -19.135217      -520.6957 
   3   2.0000     -19.135139      -520.6936 
   4   2.0000     -10.223516      -278.1960 
   5   2.0000     -10.219196      -278.0785 
   6   2.0000     -10.218290      -278.0538 
   7   2.0000     -10.218244      -278.0526 
   8   2.0000     -10.186651      -277.1929 
   9   2.0000     -10.184731      -277.1406 
  10   2.0000     -10.180778      -277.0330 
  11   2.0000     -10.178539      -276.9721 
  12   2.0000     -10.178213      -276.9632 
  13   2.0000     -10.176310      -276.9115 
  14   2.0000     -10.175470      -276.8886 
  15   2.0000     -10.168588      -276.7013 
  16   2.0000     -10.167593      -276.6743 
  17   2.0000     -10.167100      -276.6608 
  18   2.0000     -10.166644      -276.6485 
  19   2.0000     -10.165056      -276.6052 
  20   2.0000     -10.165007      -276.6039 
  21   2.0000     -10.164062      -276.5782 
  22   2.0000     -10.164017      -276.5770 
  23   2.0000     -10.163903      -276.5739 
  24   2.0000     -10.162255      -276.5290 
  25   2.0000     -10.161855      -276.5181 
  26   2.0000     -10.161451      -276.5071 
  27   2.0000     -10.160044      -276.4688 
  28   2.0000     -10.159602      -276.4568 
  29   2.0000     -10.159058      -276.4420 
  30   2.0000     -10.158037      -276.4142 
  31   2.0000     -10.157084      -276.3883 
  32   2.0000     -10.156581      -276.3746 
  33   2.0000     -10.156447      -276.3710 
  34   2.0000     -10.155541      -276.3463 
  35   2.0000     -10.151700      -276.2418 
  36   2.0000     -10.149996      -276.1954 
  37   2.0000     -10.147275      -276.1214 
  38   2.0000      -1.028313       -27.9818 
  39   2.0000      -1.025424       -27.9032 
  40   2.0000      -1.003721       -27.3126 
  41   2.0000      -1.003195       -27.2983 
  42   2.0000      -0.860821       -23.4241 
  43   2.0000      -0.846639       -23.0382 
  44   2.0000      -0.823131       -22.3985 
  45   2.0000      -0.800043       -21.7703 
  46   2.0000      -0.784308       -21.3421 
  47   2.0000      -0.779790       -21.2192 
  48   2.0000      -0.764442       -20.8015 
  49   2.0000      -0.743896       -20.2424 
  50   2.0000      -0.741001       -20.1637 
  51   2.0000      -0.740840       -20.1593 
  52   2.0000      -0.733081       -19.9481 
  53   2.0000      -0.723718       -19.6934 
  54   2.0000      -0.707573       -19.2540 
  55   2.0000      -0.693794       -18.8791 
  56   2.0000      -0.681650       -18.5486 
  57   2.0000      -0.677206       -18.4277 
  58   2.0000      -0.673649       -18.3309 
  59   2.0000      -0.663583       -18.0570 
  60   2.0000      -0.662747       -18.0343 
  61   2.0000      -0.660691       -17.9783 
  62   2.0000      -0.644617       -17.5409 
  63   2.0000      -0.611920       -16.6512 
  64   2.0000      -0.603814       -16.4306 
  65   2.0000      -0.602519       -16.3954 
  66   2.0000      -0.602465       -16.3939 
  67   2.0000      -0.593688       -16.1551 
  68   2.0000      -0.575669       -15.6647 
  69   2.0000      -0.571719       -15.5573 
  70   2.0000      -0.547302       -14.8929 
  71   2.0000      -0.543168       -14.7804 
  72   2.0000      -0.529949       -14.4206 
  73   2.0000      -0.517505       -14.0820 
  74   2.0000      -0.509976       -13.8772 
  75   2.0000      -0.508922       -13.8485 
  76   2.0000      -0.506762       -13.7897 
  77   2.0000      -0.500663       -13.6237 
  78   2.0000      -0.490073       -13.3356 
  79   2.0000      -0.483939       -13.1686 
  80   2.0000      -0.475829       -12.9480 
  81   2.0000      -0.469613       -12.7788 
  82   2.0000      -0.466276       -12.6880 
  83   2.0000      -0.462123       -12.5750 
  84   2.0000      -0.456521       -12.4226 
  85   2.0000      -0.456432       -12.4202 
  86   2.0000      -0.455428       -12.3928 
  87   2.0000      -0.450977       -12.2717 
  88   2.0000      -0.447947       -12.1893 
  89   2.0000      -0.440617       -11.9898 
  90   2.0000      -0.438583       -11.9344 
  91   2.0000      -0.432795       -11.7770 
  92   2.0000      -0.425659       -11.5828 
  93   2.0000      -0.418598       -11.3906 
  94   2.0000      -0.414363       -11.2754 
  95   2.0000      -0.413446       -11.2505 
  96   2.0000      -0.410999       -11.1839 
  97   2.0000      -0.405019       -11.0211 
  98   2.0000      -0.400180       -10.8894 
  99   2.0000      -0.398250       -10.8369 
 100   2.0000      -0.397086       -10.8052 
 101   2.0000      -0.396647       -10.7933 
 102   2.0000      -0.394988       -10.7482 
 103   2.0000      -0.390254       -10.6193 
 104   2.0000      -0.383146       -10.4259 
 105   2.0000      -0.380858       -10.3637 
 106   2.0000      -0.378984       -10.3127 
 107   2.0000      -0.377315       -10.2673 
 108   2.0000      -0.375991       -10.2312 
 109   2.0000      -0.370541       -10.0829 
 110   2.0000      -0.369254       -10.0479 
 111   2.0000      -0.364679        -9.9234 
 112   2.0000      -0.364130        -9.9085 
 113   2.0000      -0.361659        -9.8413 
 114   2.0000      -0.360210        -9.8018 
 115   2.0000      -0.360073        -9.7981 
 116   2.0000      -0.357667        -9.7326 
 117   2.0000      -0.356979        -9.7139 
 118   2.0000      -0.355732        -9.6800 
 119   2.0000      -0.354157        -9.6371 
 120   2.0000      -0.349159        -9.5011 
 121   2.0000      -0.344837        -9.3835 
 122   2.0000      -0.339004        -9.2248 
 123   2.0000      -0.336851        -9.1662 
 124   2.0000      -0.334671        -9.1069 
 125   2.0000      -0.330172        -8.9844 
 126   2.0000      -0.329563        -8.9679 
 127   2.0000      -0.328342        -8.9346 
 128   2.0000      -0.325504        -8.8574 
 129   2.0000      -0.325048        -8.8450 
 130   2.0000      -0.321279        -8.7424 
 131   2.0000      -0.318515        -8.6672 
 132   2.0000      -0.315583        -8.5874 
 133   2.0000      -0.310243        -8.4421 
 134   2.0000      -0.307923        -8.3790 
 135   2.0000      -0.302958        -8.2439 
 136   2.0000      -0.301540        -8.2053 
 137   2.0000      -0.300154        -8.1676 
 138   2.0000      -0.292954        -7.9717 
 139   2.0000      -0.287761        -7.8304 
 140   2.0000      -0.281685        -7.6650 
 141   2.0000      -0.280031        -7.6200 
 142   2.0000      -0.272535        -7.4161 
 143   2.0000      -0.270500        -7.3607 
 144   2.0000      -0.267273        -7.2729 
 145   2.0000      -0.267053        -7.2669 
 146   2.0000      -0.258287        -7.0283 
 147   2.0000      -0.251767        -6.8509 
 148   2.0000      -0.235181        -6.3996 
 149   0.0000      -0.007010        -0.1907 
 150   0.0000      -0.004436        -0.1207 
 151   0.0000       0.001120         0.0305 
 152   0.0000       0.003416         0.0930 
 153   0.0000       0.004784         0.1302 
 154   0.0000       0.008102         0.2205 
 155   0.0000       0.010286         0.2799 
 156   0.0000       0.011117         0.3025 
 157   0.0000       0.015989         0.4351 
 158   0.0000       0.018524         0.5041 
 159   0.0000       0.019437         0.5289 
 160   0.0000       0.023213         0.6316 
 161   0.0000       0.024562         0.6684 
 162   0.0000       0.025790         0.7018 
 163   0.0000       0.028922         0.7870 
 164   0.0000       0.030563         0.8317 
 165   0.0000       0.033969         0.9244 
 166   0.0000       0.036999         1.0068 
 167   0.0000       0.037923         1.0319 
 168   0.0000       0.039460         1.0738 
 169   0.0000       0.042537         1.1575 
 170   0.0000       0.044711         1.2167 
 171   0.0000       0.047107         1.2818 
 172   0.0000       0.048345         1.3155 
 173   0.0000       0.050665         1.3787 
 174   0.0000       0.051725         1.4075 
 175   0.0000       0.053703         1.4613 
 176   0.0000       0.057029         1.5518 
 177   0.0000       0.058134         1.5819 
 178   0.0000       0.060080         1.6349 
 179   0.0000       0.060983         1.6594 
 180   0.0000       0.064142         1.7454 
 181   0.0000       0.064415         1.7528 
 182   0.0000       0.066582         1.8118 
 183   0.0000       0.068799         1.8721 
 184   0.0000       0.070642         1.9223 
 185   0.0000       0.074231         2.0199 
 186   0.0000       0.074543         2.0284 
 187   0.0000       0.076096         2.0707 
 188   0.0000       0.078410         2.1336 
 189   0.0000       0.080339         2.1861 
 190   0.0000       0.082766         2.2522 
 191   0.0000       0.084085         2.2881 
 192   0.0000       0.085877         2.3368 
 193   0.0000       0.087689         2.3861 
 194   0.0000       0.088452         2.4069 
 195   0.0000       0.091968         2.5026 
 196   0.0000       0.092549         2.5184 
 197   0.0000       0.094492         2.5712 
 198   0.0000       0.095470         2.5979 
 199   0.0000       0.099467         2.7066 
 200   0.0000       0.100016         2.7216 
 201   0.0000       0.100637         2.7385 
 202   0.0000       0.101397         2.7591 
 203   0.0000       0.104657         2.8479 
 204   0.0000       0.106065         2.8862 
 205   0.0000       0.107844         2.9346 
 206   0.0000       0.108618         2.9556 
 207   0.0000       0.109847         2.9891 
 208   0.0000       0.111577         3.0362 
 209   0.0000       0.113703         3.0940 
 210   0.0000       0.114703         3.1212 
 211   0.0000       0.117716         3.2032 
 212   0.0000       0.119496         3.2517 
 213   0.0000       0.119975         3.2647 
 214   0.0000       0.122048         3.3211 
 215   0.0000       0.124045         3.3754 
 216   0.0000       0.124861         3.3977 
 217   0.0000       0.125920         3.4264 
 218   0.0000       0.126427         3.4402 
 219   0.0000       0.128424         3.4946 
 220   0.0000       0.129500         3.5239 
 221   0.0000       0.131393         3.5754 
 222   0.0000       0.133001         3.6192 
 223   0.0000       0.135361         3.6834 
 224   0.0000       0.136372         3.7109 
 225   0.0000       0.137813         3.7501 
 226   0.0000       0.139144         3.7863 
 227   0.0000       0.139531         3.7968 
 228   0.0000       0.141366         3.8468 
 229   0.0000       0.141866         3.8604 
 230   0.0000       0.142128         3.8675 
 231   0.0000       0.143885         3.9153 
 232   0.0000       0.144594         3.9346 
 233   0.0000       0.144747         3.9388 
 234   0.0000       0.146993         3.9999 
 235   0.0000       0.147786         4.0215 
 236   0.0000       0.147955         4.0261 
 237   0.0000       0.148894         4.0516 
 238   0.0000       0.149711         4.0739 
 239   0.0000       0.151542         4.1237 
 240   0.0000       0.152043         4.1373 
 241   0.0000       0.153872         4.1871 
 242   0.0000       0.154535         4.2051 
 243   0.0000       0.155932         4.2431 
 244   0.0000       0.157405         4.2832 
 245   0.0000       0.158090         4.3019 
 246   0.0000       0.158499         4.3130 
 247   0.0000       0.159713         4.3460 
 248   0.0000       0.161831         4.4037 
 249   0.0000       0.163206         4.4411 
 250   0.0000       0.164247         4.4694 
 251   0.0000       0.165510         4.5037 
 252   0.0000       0.166469         4.5299 
 253   0.0000       0.167600         4.5606 
 254   0.0000       0.168111         4.5745 
 255   0.0000       0.169652         4.6165 
 256   0.0000       0.171323         4.6619 
 257   0.0000       0.172081         4.6826 
 258   0.0000       0.172553         4.6954 
 259   0.0000       0.174905         4.7594 
 260   0.0000       0.175831         4.7846 
 261   0.0000       0.177873         4.8402 
 262   0.0000       0.178850         4.8667 
 263   0.0000       0.179190         4.8760 
 264   0.0000       0.180469         4.9108 
 265   0.0000       0.181502         4.9389 
 266   0.0000       0.182022         4.9531 
 267   0.0000       0.183449         4.9919 
 268   0.0000       0.184756         5.0275 
 269   0.0000       0.185664         5.0522 
 270   0.0000       0.186960         5.0875 
 271   0.0000       0.188241         5.1223 
 272   0.0000       0.188944         5.1414 
 273   0.0000       0.190699         5.1892 
 274   0.0000       0.193017         5.2522 
 275   0.0000       0.193957         5.2778 
 276   0.0000       0.195590         5.3223 
 277   0.0000       0.197050         5.3620 
 278   0.0000       0.197670         5.3789 
 279   0.0000       0.198506         5.4016 
 280   0.0000       0.200341         5.4516 
 281   0.0000       0.202053         5.4982 
[...]
281:   3099.45   0.013728   69.37  0.001382  ( 0.010222 -0.009690  0.034406)
282:   3102.68   0.009649   48.76  0.000970  (-0.012921  0.023278  0.016176)
283:   3103.50   0.009706   49.05  0.000976  ( 0.001769 -0.030024 -0.008451)
284:   3105.10   0.016264   82.19  0.001635  (-0.020459  0.034813  0.002003)
285:   3109.50   0.008204   41.46  0.000823  (-0.005661 -0.027640 -0.005232)
286:   3115.39   0.009747   49.25  0.000976  ( 0.005018  0.030840  0.000145)
287:   3119.33   0.011276   56.98  0.001128  ( 0.030106  0.014634 -0.002747)
288:   3124.97   0.003684   18.62  0.000368  ( 0.000000 -0.013656 -0.013469)
289:   3126.26   0.010027   50.67  0.001001  (-0.029236 -0.012007  0.001431)
290:   3128.65   0.010734   54.25  0.001071  (-0.015095  0.026973  0.010735)
291:   3135.90   0.009310   47.05  0.000926  ( 0.022143  0.007770  0.019385)
292:   3137.41   0.010521   53.17  0.001047  (-0.017051  0.027339  0.002885)
293:   3139.60   0.004194   21.20  0.000417  (-0.005194  0.006604  0.018609)
294:   3149.47   0.010044   50.76  0.000995  (-0.018188 -0.025481  0.003895)
295:   3209.20   0.006513   32.92  0.000633  (-0.000930  0.018980 -0.016499)
296:   3531.56   0.222342  1123.62  0.019647  (-0.131447 -0.003438  0.048547)
297:   3546.60   0.218289  1103.14  0.019207  (-0.079596  0.054182 -0.099678)
298:   3787.78   0.015279   77.21  0.001259  (-0.005310  0.032443  0.013342)
299:   3810.57   0.018386   92.92  0.001506  ( 0.013541  0.035842  0.006142)

* The epsilon (eps) is given for a Dirac delta lineshape.
** The dipole moment derivative (T) already includes vibrational overlap.

The first frequency considered to be a vibration is 10
The total number of vibrations considered is 290


--------------------------
THERMOCHEMISTRY AT 298.15K
--------------------------

Temperature         ... 298.15 K
Pressure            ... 1.00 atm
Total Mass          ... 534.87 AMU

Throughout the following assumptions are being made:
  (1) The electronic state is orbitally nondegenerate
  (2) There are no thermally accessible electronically excited states
  (3) Hindered rotations indicated by low frequency modes are not
      treated as such but are treated as vibrations and this may
      cause some error
  (4) All equations used are the standard statistical mechanics
      equations for an ideal gas
  (5) All vibrations are strictly harmonic

freq.       6.08  E(vib)   ...       0.58 
freq.      12.97  E(vib)   ...       0.57 
freq.      21.36  E(vib)   ...       0.56 
freq.      32.01  E(vib)   ...       0.55 
freq.      38.78  E(vib)   ...       0.54 
freq.      42.03  E(vib)   ...       0.53 
freq.      44.64  E(vib)   ...       0.53 
freq.      60.61  E(vib)   ...       0.51 
freq.      64.72  E(vib)   ...       0.50 
freq.      67.48  E(vib)   ...       0.50 
freq.      76.02  E(vib)   ...       0.49 
freq.      79.59  E(vib)   ...       0.49 
freq.      83.27  E(vib)   ...       0.48 
freq.      94.18  E(vib)   ...       0.47 
freq.      99.34  E(vib)   ...       0.46 
freq.     109.28  E(vib)   ...       0.45 
freq.     127.79  E(vib)   ...       0.43 
freq.     138.26  E(vib)   ...       0.42 
freq.     153.88  E(vib)   ...       0.40 
freq.     172.68  E(vib)   ...       0.38 
freq.     176.86  E(vib)   ...       0.38 
freq.     184.36  E(vib)   ...       0.37 
freq.     191.89  E(vib)   ...       0.36 
freq.     199.56  E(vib)   ...       0.35 
freq.     210.40  E(vib)   ...       0.34 
freq.     236.86  E(vib)   ...       0.32 
freq.     239.31  E(vib)   ...       0.31 
freq.     249.46  E(vib)   ...       0.31 
freq.     252.19  E(vib)   ...       0.30 
freq.     252.93  E(vib)   ...       0.30 
freq.     253.59  E(vib)   ...       0.30 
freq.     262.40  E(vib)   ...       0.29 
freq.     265.85  E(vib)   ...       0.29 
freq.     268.90  E(vib)   ...       0.29 
freq.     279.94  E(vib)   ...       0.28 
freq.     283.71  E(vib)   ...       0.28 
freq.     295.86  E(vib)   ...       0.27 
freq.     297.02  E(vib)   ...       0.27 
freq.     298.71  E(vib)   ...       0.26 
freq.     310.23  E(vib)   ...       0.26 
freq.     316.27  E(vib)   ...       0.25 
freq.     321.26  E(vib)   ...       0.25 
freq.     324.82  E(vib)   ...       0.24 
freq.     327.19  E(vib)   ...       0.24 
freq.     342.24  E(vib)   ...       0.23 
freq.     348.46  E(vib)   ...       0.23 
freq.     356.27  E(vib)   ...       0.22 
freq.     369.84  E(vib)   ...       0.21 
freq.     374.18  E(vib)   ...       0.21 
freq.     377.73  E(vib)   ...       0.21 
freq.     394.65  E(vib)   ...       0.20 
freq.     401.58  E(vib)   ...       0.19 
freq.     407.50  E(vib)   ...       0.19 
freq.     434.48  E(vib)   ...       0.17 
freq.     438.31  E(vib)   ...       0.17 
freq.     440.63  E(vib)   ...       0.17 
freq.     447.34  E(vib)   ...       0.17 
freq.     453.53  E(vib)   ...       0.16 
freq.     458.54  E(vib)   ...       0.16 
freq.     466.42  E(vib)   ...       0.16 
freq.     478.59  E(vib)   ...       0.15 
freq.     481.75  E(vib)   ...       0.15 
freq.     510.87  E(vib)   ...       0.14 
freq.     519.94  E(vib)   ...       0.13 
freq.     530.58  E(vib)   ...       0.13 
freq.     538.46  E(vib)   ...       0.12 
freq.     550.08  E(vib)   ...       0.12 
freq.     552.82  E(vib)   ...       0.12 
freq.     601.63  E(vib)   ...       0.10 
freq.     607.11  E(vib)   ...       0.10 
freq.     614.32  E(vib)   ...       0.10 
freq.     640.30  E(vib)   ...       0.09 
freq.     642.86  E(vib)   ...       0.09 
freq.     652.83  E(vib)   ...       0.08 
freq.     660.70  E(vib)   ...       0.08 
freq.     677.56  E(vib)   ...       0.08 
freq.     705.09  E(vib)   ...       0.07 
freq.     728.60  E(vib)   ...       0.06 
freq.     733.55  E(vib)   ...       0.06 
freq.     748.52  E(vib)   ...       0.06 
freq.     749.61  E(vib)   ...       0.06 
freq.     776.18  E(vib)   ...       0.05 
freq.     783.04  E(vib)   ...       0.05 
freq.     804.88  E(vib)   ...       0.05 
freq.     809.67  E(vib)   ...       0.05 
freq.     810.72  E(vib)   ...       0.05 
freq.     826.54  E(vib)   ...       0.04 
freq.     846.17  E(vib)   ...       0.04 
freq.     858.80  E(vib)   ...       0.04 
freq.     862.91  E(vib)   ...       0.04 
freq.     877.86  E(vib)   ...       0.04 
freq.     885.05  E(vib)   ...       0.04 
freq.     888.02  E(vib)   ...       0.04 
freq.     888.86  E(vib)   ...       0.04 
freq.     898.16  E(vib)   ...       0.03 
freq.     899.09  E(vib)   ...       0.03 
freq.     908.41  E(vib)   ...       0.03 
freq.     914.54  E(vib)   ...       0.03 
freq.     918.81  E(vib)   ...       0.03 
freq.     927.36  E(vib)   ...       0.03 
freq.     929.43  E(vib)   ...       0.03 
freq.     932.95  E(vib)   ...       0.03 
freq.     939.61  E(vib)   ...       0.03 
freq.     953.44  E(vib)   ...       0.03 
freq.     956.62  E(vib)   ...       0.03 
freq.     964.00  E(vib)   ...       0.03 
freq.     972.99  E(vib)   ...       0.03 
freq.     980.77  E(vib)   ...       0.02 
freq.     984.33  E(vib)   ...       0.02 
freq.     994.38  E(vib)   ...       0.02 
freq.    1001.15  E(vib)   ...       0.02 
freq.    1004.15  E(vib)   ...       0.02 
freq.    1008.64  E(vib)   ...       0.02 
freq.    1011.15  E(vib)   ...       0.02 
freq.    1018.32  E(vib)   ...       0.02 
freq.    1022.39  E(vib)   ...       0.02 
freq.    1029.08  E(vib)   ...       0.02 
freq.    1033.02  E(vib)   ...       0.02 
freq.    1044.79  E(vib)   ...       0.02 
freq.    1049.91  E(vib)   ...       0.02 
freq.    1050.07  E(vib)   ...       0.02 
freq.    1051.03  E(vib)   ...       0.02 
freq.    1060.44  E(vib)   ...       0.02 
freq.    1064.35  E(vib)   ...       0.02 
freq.    1078.40  E(vib)   ...       0.02 
freq.    1081.80  E(vib)   ...       0.02 
freq.    1090.07  E(vib)   ...       0.02 
freq.    1092.78  E(vib)   ...       0.02 
freq.    1093.31  E(vib)   ...       0.02 
freq.    1096.63  E(vib)   ...       0.02 
freq.    1107.56  E(vib)   ...       0.02 
freq.    1112.96  E(vib)   ...       0.01 
freq.    1121.13  E(vib)   ...       0.01 
freq.    1125.10  E(vib)   ...       0.01 
freq.    1130.39  E(vib)   ...       0.01 
freq.    1143.20  E(vib)   ...       0.01 
freq.    1145.49  E(vib)   ...       0.01 
freq.    1151.82  E(vib)   ...       0.01 
freq.    1160.27  E(vib)   ...       0.01 
freq.    1167.90  E(vib)   ...       0.01 
freq.    1169.14  E(vib)   ...       0.01 
freq.    1169.16  E(vib)   ...       0.01 
freq.    1179.48  E(vib)   ...       0.01 
freq.    1195.14  E(vib)   ...       0.01 
freq.    1198.30  E(vib)   ...       0.01 
freq.    1208.49  E(vib)   ...       0.01 
freq.    1215.11  E(vib)   ...       0.01 
freq.    1216.80  E(vib)   ...       0.01 
freq.    1219.92  E(vib)   ...       0.01 
freq.    1227.21  E(vib)   ...       0.01 
freq.    1229.06  E(vib)   ...       0.01 
freq.    1246.16  E(vib)   ...       0.01 
freq.    1258.14  E(vib)   ...       0.01 
freq.    1260.63  E(vib)   ...       0.01 
freq.    1272.88  E(vib)   ...       0.01 
freq.    1273.91  E(vib)   ...       0.01 
freq.    1287.37  E(vib)   ...       0.01 
freq.    1290.27  E(vib)   ...       0.01 
freq.    1290.81  E(vib)   ...       0.01 
freq.    1292.38  E(vib)   ...       0.01 
freq.    1297.04  E(vib)   ...       0.01 
freq.    1298.57  E(vib)   ...       0.01 
freq.    1308.97  E(vib)   ...       0.01 
freq.    1314.79  E(vib)   ...       0.01 
freq.    1323.08  E(vib)   ...       0.01 
freq.    1327.39  E(vib)   ...       0.01 
freq.    1329.23  E(vib)   ...       0.01 
freq.    1331.23  E(vib)   ...       0.01 
freq.    1344.35  E(vib)   ...       0.01 
freq.    1346.85  E(vib)   ...       0.01 
freq.    1348.45  E(vib)   ...       0.01 
freq.    1355.29  E(vib)   ...       0.01 
freq.    1359.57  E(vib)   ...       0.01 
freq.    1365.41  E(vib)   ...       0.01 
freq.    1370.34  E(vib)   ...       0.01 
freq.    1371.30  E(vib)   ...       0.01 
freq.    1373.83  E(vib)   ...       0.01 
freq.    1375.21  E(vib)   ...       0.01 
freq.    1381.64  E(vib)   ...       0.01 
freq.    1383.66  E(vib)   ...       0.00 
freq.    1386.68  E(vib)   ...       0.00 
freq.    1389.89  E(vib)   ...       0.00 
freq.    1390.38  E(vib)   ...       0.00 
freq.    1390.96  E(vib)   ...       0.00 
freq.    1392.06  E(vib)   ...       0.00 
freq.    1395.50  E(vib)   ...       0.00 
freq.    1397.89  E(vib)   ...       0.00 
freq.    1400.21  E(vib)   ...       0.00 
freq.    1405.25  E(vib)   ...       0.00 
freq.    1407.75  E(vib)   ...       0.00 
freq.    1413.86  E(vib)   ...       0.00 
freq.    1417.36  E(vib)   ...       0.00 
freq.    1421.91  E(vib)   ...       0.00 
freq.    1423.85  E(vib)   ...       0.00 
freq.    1427.23  E(vib)   ...       0.00 
freq.    1442.33  E(vib)   ...       0.00 
freq.    1463.82  E(vib)   ...       0.00 
freq.    1465.12  E(vib)   ...       0.00 
freq.    1465.13  E(vib)   ...       0.00 
freq.    1467.15  E(vib)   ...       0.00 
freq.    1469.76  E(vib)   ...       0.00 
freq.    1473.20  E(vib)   ...       0.00 
freq.    1474.24  E(vib)   ...       0.00 
freq.    1475.52  E(vib)   ...       0.00 
freq.    1476.68  E(vib)   ...       0.00 
freq.    1477.49  E(vib)   ...       0.00 
freq.    1477.97  E(vib)   ...       0.00 
freq.    1478.66  E(vib)   ...       0.00 
freq.    1479.91  E(vib)   ...       0.00 
freq.    1481.83  E(vib)   ...       0.00 
freq.    1482.55  E(vib)   ...       0.00 
freq.    1484.18  E(vib)   ...       0.00 
freq.    1485.97  E(vib)   ...       0.00 
freq.    1489.31  E(vib)   ...       0.00 
freq.    1490.92  E(vib)   ...       0.00 
freq.    1492.39  E(vib)   ...       0.00 
freq.    1494.35  E(vib)   ...       0.00 
freq.    1494.94  E(vib)   ...       0.00 
freq.    1496.93  E(vib)   ...       0.00 
freq.    1500.56  E(vib)   ...       0.00 
freq.    1503.32  E(vib)   ...       0.00 
freq.    1507.22  E(vib)   ...       0.00 
freq.    1509.21  E(vib)   ...       0.00 
freq.    1510.05  E(vib)   ...       0.00 
freq.    1510.30  E(vib)   ...       0.00 
freq.    1510.57  E(vib)   ...       0.00 
freq.    1519.71  E(vib)   ...       0.00 
freq.    1681.08  E(vib)   ...       0.00 
freq.    2980.74  E(vib)   ...       0.00 
freq.    2991.29  E(vib)   ...       0.00 
freq.    2991.71  E(vib)   ...       0.00 
freq.    3006.10  E(vib)   ...       0.00 
freq.    3018.35  E(vib)   ...       0.00 
freq.    3020.04  E(vib)   ...       0.00 
freq.    3020.27  E(vib)   ...       0.00 
freq.    3022.49  E(vib)   ...       0.00 
freq.    3023.21  E(vib)   ...       0.00 
freq.    3025.63  E(vib)   ...       0.00 
freq.    3027.64  E(vib)   ...       0.00 
freq.    3028.22  E(vib)   ...       0.00 
freq.    3028.79  E(vib)   ...       0.00 
freq.    3029.39  E(vib)   ...       0.00 
freq.    3029.74  E(vib)   ...       0.00 
freq.    3034.09  E(vib)   ...       0.00 
freq.    3035.27  E(vib)   ...       0.00 
freq.    3039.65  E(vib)   ...       0.00 
freq.    3040.08  E(vib)   ...       0.00 
freq.    3040.66  E(vib)   ...       0.00 
freq.    3042.13  E(vib)   ...       0.00 
freq.    3043.96  E(vib)   ...       0.00 
freq.    3044.59  E(vib)   ...       0.00 
freq.    3049.94  E(vib)   ...       0.00 
freq.    3052.90  E(vib)   ...       0.00 
freq.    3053.41  E(vib)   ...       0.00 
freq.    3055.19  E(vib)   ...       0.00 
freq.    3058.99  E(vib)   ...       0.00 
freq.    3062.17  E(vib)   ...       0.00 
freq.    3067.88  E(vib)   ...       0.00 
freq.    3070.97  E(vib)   ...       0.00 
freq.    3071.75  E(vib)   ...       0.00 
freq.    3076.66  E(vib)   ...       0.00 
freq.    3077.14  E(vib)   ...       0.00 
freq.    3078.03  E(vib)   ...       0.00 
freq.    3081.48  E(vib)   ...       0.00 
freq.    3082.45  E(vib)   ...       0.00 
freq.    3084.37  E(vib)   ...       0.00 
freq.    3087.53  E(vib)   ...       0.00 
freq.    3096.13  E(vib)   ...       0.00 
freq.    3097.67  E(vib)   ...       0.00 
freq.    3098.04  E(vib)   ...       0.00 
freq.    3099.07  E(vib)   ...       0.00 
freq.    3099.45  E(vib)   ...       0.00 
freq.    3102.68  E(vib)   ...       0.00 
freq.    3103.50  E(vib)   ...       0.00 
freq.    3105.10  E(vib)   ...       0.00 
freq.    3109.50  E(vib)   ...       0.00 
freq.    3115.39  E(vib)   ...       0.00 
freq.    3119.33  E(vib)   ...       0.00 
freq.    3124.97  E(vib)   ...       0.00 
freq.    3126.26  E(vib)   ...       0.00 
freq.    3128.65  E(vib)   ...       0.00 
freq.    3135.90  E(vib)   ...       0.00 
freq.    3137.41  E(vib)   ...       0.00 
freq.    3139.60  E(vib)   ...       0.00 
freq.    3149.47  E(vib)   ...       0.00 
freq.    3209.20  E(vib)   ...       0.00 
freq.    3531.56  E(vib)   ...       0.00 
freq.    3546.60  E(vib)   ...       0.00 
freq.    3787.78  E(vib)   ...       0.00 
freq.    3810.57  E(vib)   ...       0.00 

------------
INNER ENERGY
------------

The inner energy is: U= E(el) + E(ZPE) + E(vib) + E(rot) + E(trans)
    E(el)   - is the total energy from the electronic structure calculation
              = E(kin-el) + E(nuc-el) + E(el-el) + E(nuc-nuc)
    E(ZPE)  - the the zero temperature vibrational energy from the frequency calculation
    E(vib)  - the the finite temperature correction to E(ZPE) due to population
              of excited vibrational states
    E(rot)  - is the rotational thermal energy
    E(trans)- is the translational thermal energy

Summary of contributions to the inner energy U:
Electronic energy                ...  -1632.89936144 Eh
Zero point energy                ...      0.91161170 Eh     572.04 kcal/mol
Thermal vibrational correction   ...      0.03844209 Eh      24.12 kcal/mol
Thermal rotational correction    ...      0.00141627 Eh       0.89 kcal/mol
Thermal translational correction ...      0.00141627 Eh       0.89 kcal/mol
-----------------------------------------------------------------------
Total thermal energy                  -1631.94647510 Eh


Summary of corrections to the electronic energy:
(perhaps to be used in another calculation)
Total thermal correction                  0.04127463 Eh      25.90 kcal/mol
Non-thermal (ZPE) correction              0.91161170 Eh     572.04 kcal/mol
-----------------------------------------------------------------------
Total correction                          0.95288633 Eh     597.94 kcal/mol


--------
ENTHALPY
--------

The enthalpy is H = U + kB*T
                kB is Boltzmann's constant
Total free energy                 ...  -1631.94647510 Eh 
Thermal Enthalpy correction       ...      0.00094421 Eh       0.59 kcal/mol
-----------------------------------------------------------------------
Total Enthalpy                    ...  -1631.94553090 Eh


Note: Only C1 symmetry has been detected, increase convergence thresholds 
      if your molecule has a higher symmetry. Symmetry factor of 1.0 is   
      used for the rotational entropy correction. 
 

Note: Rotational entropy computed according to Herzberg 
Infrared and Raman Spectra, Chapter V,1, Van Nostrand Reinhold, 1945 
Point Group:  C1, Symmetry Number:   1  
Rotational constants in cm-1:     0.005389     0.001196     0.001104 

Vibrational entropy computed according to the QRRHO of S. Grimme
Chem.Eur.J. 2012 18 9955


-------
ENTROPY
-------

The entropy contributions are T*S = T*(S(el)+S(vib)+S(rot)+S(trans))
     S(el)   - electronic entropy
     S(vib)  - vibrational entropy
     S(rot)  - rotational entropy
     S(trans)- translational entropy
The entropies will be listed as multiplied by the temperature to get
units of energy

Electronic entropy                ...      0.00000000 Eh      0.00 kcal/mol
Vibrational entropy               ...      0.06829697 Eh     42.86 kcal/mol
Rotational entropy                ...      0.01836741 Eh     11.53 kcal/mol
Translational entropy             ...      0.02124611 Eh     13.33 kcal/mol
-----------------------------------------------------------------------
Final entropy term                ...      0.10791049 Eh     67.71 kcal/mol

In case the symmetry of your molecule has not been determined correctly
or in case you have a reason to use a different symmetry number we print 
out the resulting rotational entropy values for sn=1,12 :
 --------------------------------------------------------
|  sn= 1 | S(rot)=       0.01836741 Eh     11.53 kcal/mol|
|  sn= 2 | S(rot)=       0.01771295 Eh     11.12 kcal/mol|
|  sn= 3 | S(rot)=       0.01733012 Eh     10.87 kcal/mol|
|  sn= 4 | S(rot)=       0.01705850 Eh     10.70 kcal/mol|
|  sn= 5 | S(rot)=       0.01684781 Eh     10.57 kcal/mol|
|  sn= 6 | S(rot)=       0.01667566 Eh     10.46 kcal/mol|
|  sn= 7 | S(rot)=       0.01653012 Eh     10.37 kcal/mol|
|  sn= 8 | S(rot)=       0.01640404 Eh     10.29 kcal/mol|
|  sn= 9 | S(rot)=       0.01629283 Eh     10.22 kcal/mol|
|  sn=10 | S(rot)=       0.01619335 Eh     10.16 kcal/mol|
|  sn=11 | S(rot)=       0.01610336 Eh     10.10 kcal/mol|
|  sn=12 | S(rot)=       0.01602121 Eh     10.05 kcal/mol|
 --------------------------------------------------------


-------------------
GIBBS FREE ENERGY
-------------------

The Gibbs free energy is G = H - T*S

Total enthalpy                    ...  -1631.94553090 Eh 
Total entropy correction          ...     -0.10791049 Eh    -67.71 kcal/mol
-----------------------------------------------------------------------
Final Gibbs free energy         ...  -1632.05344139 Eh

For completeness - the Gibbs free energy minus the electronic energy
G-E(el)                           ...      0.84592005 Eh    530.82 kcal/mol


Timings for individual modules:

Sum of individual times         ...    23483.098 sec (= 391.385 min)
GTO integral calculation        ...        1.978 sec (=   0.033 min)   0.0 %
SCF iterations                  ...      222.045 sec (=   3.701 min)   0.9 %
Analytical frequency calculation...    23259.075 sec (= 387.651 min)  99.0 %
                             ****ORCA TERMINATED NORMALLY****
TOTAL RUN TIME: 0 days 6 hours 31 minutes 24 seconds 844 msec
