
                                 *****************
                                 * O   R   C   A *
                                 *****************

                                            #,                                       
                                            ###                                      
                                            ####                                     
                                            #####                                    
                                            ######                                   
                                           ########,                                 
                                     ,,################,,,,,                         
                               ,,#################################,,                 
                          ,,##########################################,,             
                       ,#########################################, ''#####,          
                    ,#############################################,,   '####,        
                  ,##################################################,,,,####,       
                ,###########''''           ''''###############################       
              ,#####''   ,,,,##########,,,,          '''####'''          '####       
            ,##' ,,,,###########################,,,                        '##       
           ' ,,###''''                  '''############,,,                           
         ,,##''                                '''############,,,,        ,,,,,,###''
      ,#''                                            '''#######################'''  
     '                                                          ''''####''''         
             ,#######,   #######,   ,#######,      ##                                
            ,#'     '#,  ##    ##  ,#'     '#,    #''#        ######   ,####,        
            ##       ##  ##   ,#'  ##            #'  '#       #        #'  '#        
            ##       ##  #######   ##           ,######,      #####,   #    #        
            '#,     ,#'  ##    ##  '#,     ,#' ,#      #,         ##   #,  ,#        
             '#######'   ##     ##  '#######'  #'      '#     #####' # '####'        



                  #######################################################
                  #                        -***-                        #
                  #          Department of theory and spectroscopy      #
                  #    Directorship and core code : Frank Neese         #
                  #        Max Planck Institute fuer Kohlenforschung    #
                  #                Kaiser Wilhelm Platz 1               #
                  #                 D-45470 Muelheim/Ruhr               #
                  #                      Germany                        #
                  #                                                     #
                  #                  All rights reserved                #
                  #                        -***-                        #
                  #######################################################


                         Program Version 5.0.4 -  RELEASE  -


 With contributions from (in alphabetic order):
   Daniel Aravena         : Magnetic Suceptibility
   Michael Atanasov       : Ab Initio Ligand Field Theory (pilot matlab implementation)
   Alexander A. Auer      : GIAO ZORA, VPT2 properties, NMR spectrum
   Ute Becker             : Parallelization
   Giovanni Bistoni       : ED, misc. LED, open-shell LED, HFLD
   Martin Brehm           : Molecular dynamics
   Dmytro Bykov           : SCF Hessian
   Vijay G. Chilkuri      : MRCI spin determinant printing, contributions to CSF-ICE
   Dipayan Datta          : RHF DLPNO-CCSD density
   Achintya Kumar Dutta   : EOM-CC, STEOM-CC
   Dmitry Ganyushin       : Spin-Orbit,Spin-Spin,Magnetic field MRCI
   Miquel Garcia          : C-PCM and meta-GGA Hessian, CC/C-PCM, Gaussian charge scheme
   Yang Guo               : DLPNO-NEVPT2, F12-NEVPT2, CIM, IAO-localization
   Andreas Hansen         : Spin unrestricted coupled pair/coupled cluster methods
   Benjamin Helmich-Paris : MC-RPA, TRAH-SCF, COSX integrals
   Lee Huntington         : MR-EOM, pCC
   Robert Izsak           : Overlap fitted RIJCOSX, COSX-SCS-MP3, EOM
   Marcus Kettner         : VPT2
   Christian Kollmar      : KDIIS, OOCD, Brueckner-CCSD(T), CCSD density, CASPT2, CASPT2-K
   Simone Kossmann        : Meta GGA functionals, TD-DFT gradient, OOMP2, MP2 Hessian
   Martin Krupicka        : Initial AUTO-CI
   Lucas Lang             : DCDCAS
   Marvin Lechner         : AUTO-CI (C++ implementation), FIC-MRCC
   Dagmar Lenk            : GEPOL surface, SMD
   Dimitrios Liakos       : Extrapolation schemes; Compound Job, initial MDCI parallelization
   Dimitrios Manganas     : Further ROCIS development; embedding schemes
   Dimitrios Pantazis     : SARC Basis sets
   Anastasios Papadopoulos: AUTO-CI, single reference methods and gradients
   Taras Petrenko         : DFT Hessian,TD-DFT gradient, ASA, ECA, R-Raman, ABS, FL, XAS/XES, NRVS
   Peter Pinski           : DLPNO-MP2, DLPNO-MP2 Gradient
   Christoph Reimann      : Effective Core Potentials
   Marius Retegan         : Local ZFS, SOC
   Christoph Riplinger    : Optimizer, TS searches, QM/MM, DLPNO-CCSD(T), (RO)-DLPNO pert. Triples
   Tobias Risthaus        : Range-separated hybrids, TD-DFT gradient, RPA, STAB
   Michael Roemelt        : Original ROCIS implementation
   Masaaki Saitow         : Open-shell DLPNO-CCSD energy and density
   Barbara Sandhoefer     : DKH picture change effects
   Avijit Sen             : IP-ROCIS
   Kantharuban Sivalingam : CASSCF convergence, NEVPT2, FIC-MRCI
   Bernardo de Souza      : ESD, SOC TD-DFT
   Georgi Stoychev        : AutoAux, RI-MP2 NMR, DLPNO-MP2 response
   Willem Van den Heuvel  : Paramagnetic NMR
   Boris Wezisla          : Elementary symmetry handling
   Frank Wennmohs         : Technical directorship


 We gratefully acknowledge several colleagues who have allowed us to
 interface, adapt or use parts of their codes:
   Stefan Grimme, W. Hujo, H. Kruse, P. Pracht,  : VdW corrections, initial TS optimization,
                  C. Bannwarth, S. Ehlert          DFT functionals, gCP, sTDA/sTD-DF
   Ed Valeev, F. Pavosevic, A. Kumar             : LibInt (2-el integral package), F12 methods
   Garnet Chan, S. Sharma, J. Yang, R. Olivares  : DMRG
   Ulf Ekstrom                                   : XCFun DFT Library
   Mihaly Kallay                                 : mrcc  (arbitrary order and MRCC methods)
   Jiri Pittner, Ondrej Demel                    : Mk-CCSD
   Frank Weinhold                                : gennbo (NPA and NBO analysis)
   Christopher J. Cramer and Donald G. Truhlar   : smd solvation model
   Lars Goerigk                                  : TD-DFT with DH, B97 family of functionals
   V. Asgeirsson, H. Jonsson                     : NEB implementation
   FAccTs GmbH                                   : IRC, NEB, NEB-TS, DLPNO-Multilevel, CI-OPT
                                                   MM, QMMM, 2- and 3-layer-ONIOM, Crystal-QMMM,
                                                   LR-CPCM, SF, NACMEs, symmetry and pop. for TD-DFT,
                                                   nearIR, NL-DFT gradient (VV10), updates on ESD,
                                                   ML-optimized integration grids
   S Lehtola, MJT Oliveira, MAL Marques          : LibXC Library
   Liviu Ungur et al                             : ANISO software


 Your calculation uses the libint2 library for the computation of 2-el integrals
 For citations please refer to: http://libint.valeyev.net

 Your ORCA version has been built with support for libXC version: 5.1.0
 For citations please refer to: https://tddft.org/programs/libxc/

 This ORCA versions uses:
   CBLAS   interface :  Fast vector & matrix operations
   LAPACKE interface :  Fast linear algebra routines
   SCALAPACK package :  Parallel linear algebra routines
   Shared memory     :  Shared parallel matrices
   BLAS/LAPACK       :  OpenBLAS 0.3.15  USE64BITINT DYNAMIC_ARCH NO_AFFINITY Zen SINGLE_THREADED
        Core in use  :  Zen
   Copyright (c) 2011-2014, The OpenBLAS Project


================================================================================

----- Orbital basis set information -----
Your calculation utilizes the basis: 6-31++G(2d,2p)
   H-He, Li-Ne : W. J. Hehre, R. Ditchfield and J.A. Pople, J. Chem. Phys. 56, 2257 (1972).
                 Note: He and Ne are unpublished basis sets taken from the Gaussian program.
                 Note: Li and B from J. D. Dill and J. A. Pople, J. Chem. Phys. 62, 2921 (1975).
   Na - Ar     : M. M. Francl, W. J. Pietro, W. J. Hehre, J. S. Binkley, M. S. Gordon, 
                 D. J. DeFrees and J. A. Pople, J. Chem. Phys. 77, 3654 (1982).
   K - Zn      : V. A. Rassolov, J. A. Pople, M. A. Ratner, and T. L. Windus, J. Chem. Phys. 109, 1223 (1998).
   Additional Pol./Diff. from the 6-311G equivalent.

----- AuxJ basis set information -----
Your calculation utilizes the auxiliary basis: def2/J
   F. Weigend, Phys. Chem. Chem. Phys. 8, 1057 (2006).

================================================================================
                                        WARNINGS
                       Please study these warnings very carefully!
================================================================================


INFO   : the flag for use of the SHARK integral package has been found!

================================================================================
                                       INPUT FILE
================================================================================
NAME = betulin_aceton_freq.inp
|  1> # avogadro generated ORCA file
|  2> # C36H62O4 | Frequencies | B3LYP 6-31++G(2d,2p) CPCM(Water)
|  3> # 
|  4> ! Freq B3LYP 6-31++G(2d,2p) CPCM(Water)
|  5> 
|  6> %maxcore 6144
|  7> 
|  8> %pal
|  9>    nprocs 4
| 10> end
| 11> 
| 12> * xyz 0 1
| 13>    O     -6.018114    0.717882    1.198919
| 14>    O      5.028241   -2.757811    0.750672
| 15>    C     -0.450686   -1.073371   -0.102646
| 16>    C      0.941213   -0.780421   -0.856257
| 17>    C     -1.233468    0.286251   -0.004611
| 18>    C      1.768741    0.221878    0.034381
| 19>    C     -2.756340    0.234410    0.411369
| 20>    C      3.196524    0.397813   -0.514894
| 21>    C      3.974282   -0.949594   -0.594027
| 22>    C     -3.459067   -0.820493   -0.502377
| 23>    C      1.747003   -2.094523   -1.091767
| 24>    C     -1.304544   -2.098416   -0.890839
| 25>    C     -0.417655    1.323591    0.792891
| 26>    C      0.998790    1.538403    0.233547
| 27>    C      3.213459   -1.893004   -1.534737
| 28>    C     -2.762382   -2.186504   -0.419514
| 29>    C      4.193731    1.372561    0.174267
| 30>    C     -5.030363   -0.906767   -0.407865
| 31>    C     -3.379624    1.641701    0.095200
| 32>    C      5.343554   -0.458789   -1.100404
| 33>    C     -0.185266   -1.689490    1.299699
| 34>    C      0.710215   -0.175320   -2.269614
| 35>    C      5.598109    0.852853   -0.316456
| 36>    C     -2.956071   -0.050111    1.917984
| 37>    C     -5.660528    0.507832   -0.179867
| 38>    C     -4.716105    1.604132   -0.669702
| 39>    C      4.169471   -1.609608    0.796703
| 40>    C      4.038789    2.856983   -0.099843
| 41>    C     -5.547354   -1.392119   -1.785076
| 42>    C     -5.533452   -1.912341    0.646973
| 43>    C      3.859394    3.305844   -1.530515
| 44>    C      4.121968    3.751173    0.896537
| 45>    H     -1.285302    0.659381   -1.032118
| 46>    H      1.864506   -0.230910    1.026667
| 47>    H      3.113767    0.735777   -1.554514
| 48>    H     -3.265272   -0.461527   -1.523368
| 49>    H      1.235282   -2.689339   -1.856017
| 50>    H      1.748412   -2.711342   -0.190858
| 51>    H     -0.841139   -3.089316   -0.822627
| 52>    H     -1.320787   -1.838294   -1.953493
| 53>    H     -0.338867    1.020017    1.841504
| 54>    H     -0.940815    2.285028    0.800104
| 55>    H      0.939079    2.087274   -0.713281
| 56>    H      1.554856    2.182286    0.920803
| 57>    H      3.705463   -2.871068   -1.586666
| 58>    H      3.252662   -1.479613   -2.549013
| 59>    H     -3.281544   -2.911544   -1.055119
| 60>    H     -2.818424   -2.590046    0.595975
| 61>    H      4.130835    1.241031    1.259293
| 62>    H     -2.679188    2.235118   -0.500736
| 63>    H     -3.518477    2.193706    1.029625
| 64>    H      5.275587   -0.251416   -2.174495
| 65>    H      6.139055   -1.194764   -0.958360
| 66>    H     -1.076908   -2.186320    1.682078
| 67>    H      0.597823   -2.448510    1.258605
| 68>    H      0.114755   -0.955526    2.047315
| 69>    H      1.655878   -0.066443   -2.803726
| 70>    H      0.085582   -0.832501   -2.878864
| 71>    H      0.242116    0.808320   -2.260559
| 72>    H      6.245955    0.682843    0.548075
| 73>    H      6.101184    1.596864   -0.939506
| 74>    H     -3.994065    0.124621    2.200464
| 75>    H     -2.698526   -1.070778    2.203524
| 76>    H     -2.337973    0.624207    2.518165
| 77>    H     -6.588923    0.550442   -0.765282
| 78>    H     -5.213367    2.577792   -0.586818
| 79>    H     -4.534612    1.448164   -1.739680
| 80>    H      3.211567   -1.892780    1.240766
| 81>    H      4.643966   -0.905391    1.484910
| 82>    H     -6.631391   -1.547434   -1.755199
| 83>    H     -5.333137   -0.662161   -2.573326
| 84>    H     -5.082672   -2.339650   -2.072584
| 85>    H     -6.627060   -1.889082    0.696069
| 86>    H     -5.237513   -2.929829    0.375878
| 87>    H     -5.153095   -1.703149    1.646896
| 88>    H     -6.591280    1.505354    1.235961
| 89>    H      4.496143   -3.561697    0.612174
| 90>    H      2.877366    3.010333   -1.915871
| 91>    H      3.942868    4.392493   -1.614632
| 92>    H      4.605014    2.850171   -2.192075
| 93>    H      4.068850    4.820143    0.708567
| 94>    H      4.240566    3.438576    1.930628
| 95>    H      4.045750   -4.947320    2.772376
| 96>    C      3.619167   -5.927961    2.559402
| 97>    H      4.282549   -6.713948    2.937170
| 98>    H      2.663609   -6.042118    3.083181
| 99>    C      3.409888   -6.116021    1.079691
|100>    O      3.707594   -5.243174    0.268984
|101>    C      2.816566   -7.424908    0.628847
|102>    H      3.439395   -8.254082    0.981930
|103>    H      1.829040   -7.555041    1.086059
|104>    H      2.730076   -7.458101   -0.457677
|105>    H     -7.220175    2.430704    3.597686
|106>    C     -7.887891    3.291293    3.547523
|107>    H     -8.794981    3.096740    4.130277
|108>    H     -7.404396    4.164889    3.999106
|109>    C     -8.260272    3.605765    2.122269
|110>    O     -7.815157    2.956250    1.180247
|111>    C     -9.205390    4.756981    1.895873
|112>    H    -10.146261    4.568703    2.424970
|113>    H     -8.780499    5.671351    2.324843
|114>    H     -9.397644    4.897761    0.831816
|115> *
|116> 
|117> 
|118> 
|119>                          ****END OF INPUT****
================================================================================

                       ****************************
                       * Single Point Calculation *
                       ****************************

---------------------------------
CARTESIAN COORDINATES (ANGSTROEM)
---------------------------------
  O     -6.018114    0.717882    1.198919
  O      5.028241   -2.757811    0.750672
  C     -0.450686   -1.073371   -0.102646
  C      0.941213   -0.780421   -0.856257
  C     -1.233468    0.286251   -0.004611
  C      1.768741    0.221878    0.034381
  C     -2.756340    0.234410    0.411369
  C      3.196524    0.397813   -0.514894
  C      3.974282   -0.949594   -0.594027
  C     -3.459067   -0.820493   -0.502377
  C      1.747003   -2.094523   -1.091767
  C     -1.304544   -2.098416   -0.890839
  C     -0.417655    1.323591    0.792891
  C      0.998790    1.538403    0.233547
  C      3.213459   -1.893004   -1.534737
  C     -2.762382   -2.186504   -0.419514
  C      4.193731    1.372561    0.174267
  C     -5.030363   -0.906767   -0.407865
  C     -3.379624    1.641701    0.095200
  C      5.343554   -0.458789   -1.100404
  C     -0.185266   -1.689490    1.299699
  C      0.710215   -0.175320   -2.269614
  C      5.598109    0.852853   -0.316456
  C     -2.956071   -0.050111    1.917984
  C     -5.660528    0.507832   -0.179867
  C     -4.716105    1.604132   -0.669702
  C      4.169471   -1.609608    0.796703
  C      4.038789    2.856983   -0.099843
  C     -5.547354   -1.392119   -1.785076
  C     -5.533452   -1.912341    0.646973
  C      3.859394    3.305844   -1.530515
  C      4.121968    3.751173    0.896537
  H     -1.285302    0.659381   -1.032118
  H      1.864506   -0.230910    1.026667
  H      3.113767    0.735777   -1.554514
  H     -3.265272   -0.461527   -1.523368
  H      1.235282   -2.689339   -1.856017
  H      1.748412   -2.711342   -0.190858
  H     -0.841139   -3.089316   -0.822627
  H     -1.320787   -1.838294   -1.953493
  H     -0.338867    1.020017    1.841504
  H     -0.940815    2.285028    0.800104
  H      0.939079    2.087274   -0.713281
  H      1.554856    2.182286    0.920803
  H      3.705463   -2.871068   -1.586666
  H      3.252662   -1.479613   -2.549013
  H     -3.281544   -2.911544   -1.055119
  H     -2.818424   -2.590046    0.595975
  H      4.130835    1.241031    1.259293
  H     -2.679188    2.235118   -0.500736
  H     -3.518477    2.193706    1.029625
  H      5.275587   -0.251416   -2.174495
  H      6.139055   -1.194764   -0.958360
  H     -1.076908   -2.186320    1.682078
  H      0.597823   -2.448510    1.258605
  H      0.114755   -0.955526    2.047315
  H      1.655878   -0.066443   -2.803726
  H      0.085582   -0.832501   -2.878864
  H      0.242116    0.808320   -2.260559
  H      6.245955    0.682843    0.548075
  H      6.101184    1.596864   -0.939506
  H     -3.994065    0.124621    2.200464
  H     -2.698526   -1.070778    2.203524
  H     -2.337973    0.624207    2.518165
  H     -6.588923    0.550442   -0.765282
  H     -5.213367    2.577792   -0.586818
  H     -4.534612    1.448164   -1.739680
  H      3.211567   -1.892780    1.240766
  H      4.643966   -0.905391    1.484910
  H     -6.631391   -1.547434   -1.755199
  H     -5.333137   -0.662161   -2.573326
  H     -5.082672   -2.339650   -2.072584
  H     -6.627060   -1.889082    0.696069
  H     -5.237513   -2.929829    0.375878
  H     -5.153095   -1.703149    1.646896
  H     -6.591280    1.505354    1.235961
  H      4.496143   -3.561697    0.612174
  H      2.877366    3.010333   -1.915871
  H      3.942868    4.392493   -1.614632
  H      4.605014    2.850171   -2.192075
  H      4.068850    4.820143    0.708567
  H      4.240566    3.438576    1.930628
  H      4.045750   -4.947320    2.772376
  C      3.619167   -5.927961    2.559402
  H      4.282549   -6.713948    2.937170
  H      2.663609   -6.042118    3.083181
  C      3.409888   -6.116021    1.079691
  O      3.707594   -5.243174    0.268984
  C      2.816566   -7.424908    0.628847
  H      3.439395   -8.254082    0.981930
  H      1.829040   -7.555041    1.086059
  H      2.730076   -7.458101   -0.457677
  H     -7.220175    2.430704    3.597686
  C     -7.887891    3.291293    3.547523
  H     -8.794981    3.096740    4.130277
  H     -7.404396    4.164889    3.999106
  C     -8.260272    3.605765    2.122269
  O     -7.815157    2.956250    1.180247
  C     -9.205390    4.756981    1.895873
  H    -10.146261    4.568703    2.424970
  H     -8.780499    5.671351    2.324843
  H     -9.397644    4.897761    0.831816

----------------------------
CARTESIAN COORDINATES (A.U.)
----------------------------
  NO LB      ZA    FRAG     MASS         X           Y           Z
   0 O     8.0000    0    15.999  -11.372587    1.356600    2.265629
   1 O     8.0000    0    15.999    9.501998   -5.211508    1.418564
   2 C     6.0000    0    12.011   -0.851673   -2.028377   -0.193973
   3 C     6.0000    0    12.011    1.778635   -1.474782   -1.618091
   4 C     6.0000    0    12.011   -2.330917    0.540936   -0.008714
   5 C     6.0000    0    12.011    3.342436    0.419289    0.064971
   6 C     6.0000    0    12.011   -5.208728    0.442971    0.777375
   7 C     6.0000    0    12.011    6.040555    0.751758   -0.973009
   8 C     6.0000    0    12.011    7.510305   -1.794473   -1.122548
   9 C     6.0000    0    12.011   -6.536689   -1.550507   -0.949355
  10 C     6.0000    0    12.011    3.301357   -3.958075   -2.063141
  11 C     6.0000    0    12.011   -2.465231   -3.965432   -1.683442
  12 C     6.0000    0    12.011   -0.789254    2.501225    1.498347
  13 C     6.0000    0    12.011    1.887440    2.907160    0.441340
  14 C     6.0000    0    12.011    6.072557   -3.577259   -2.900233
  15 C     6.0000    0    12.011   -5.220145   -4.131894   -0.792767
  16 C     6.0000    0    12.011    7.925003    2.593764    0.329317
  17 C     6.0000    0    12.011   -9.506008   -1.713541   -0.770753
  18 C     6.0000    0    12.011   -6.386564    3.102365    0.179902
  19 C     6.0000    0    12.011   10.097854   -0.866986   -2.079462
  20 C     6.0000    0    12.011   -0.350102   -3.192673    2.456075
  21 C     6.0000    0    12.011    1.342112   -0.331307   -4.288949
  22 C     6.0000    0    12.011   10.578893    1.611659   -0.598015
  23 C     6.0000    0    12.011   -5.586165   -0.094696    3.624464
  24 C     6.0000    0    12.011  -10.696848    0.959663   -0.339899
  25 C     6.0000    0    12.011   -8.912147    3.031370   -1.265553
  26 C     6.0000    0    12.011    7.879158   -3.041718    1.505550
  27 C     6.0000    0    12.011    7.632205    5.398915   -0.188676
  28 C     6.0000    0    12.011  -10.482980   -2.630724   -3.373305
  29 C     6.0000    0    12.011  -10.456709   -3.613801    1.222602
  30 C     6.0000    0    12.011    7.293198    6.247140   -2.892254
  31 C     6.0000    0    12.011    7.789391    7.088690    1.694209
  32 H     1.0000    0     1.008   -2.428869    1.246050   -1.950420
  33 H     1.0000    0     1.008    3.523406   -0.436357    1.940119
  34 H     1.0000    0     1.008    5.884167    1.390417   -2.937606
  35 H     1.0000    0     1.008   -6.170470   -0.872160   -2.878748
  36 H     1.0000    0     1.008    2.334345   -5.082114   -3.507364
  37 H     1.0000    0     1.008    3.304020   -5.123694   -0.360669
  38 H     1.0000    0     1.008   -1.589522   -5.837961   -1.554540
  39 H     1.0000    0     1.008   -2.495926   -3.473872   -3.691567
  40 H     1.0000    0     1.008   -0.640366    1.927553    3.479938
  41 H     1.0000    0     1.008   -1.777883    4.318077    1.511977
  42 H     1.0000    0     1.008    1.774602    3.944376   -1.347906
  43 H     1.0000    0     1.008    2.938252    4.123923    1.740065
  44 H     1.0000    0     1.008    7.002310   -5.425532   -2.998364
  45 H     1.0000    0     1.008    6.146640   -2.796063   -4.816936
  46 H     1.0000    0     1.008   -6.201219   -5.502021   -1.993886
  47 H     1.0000    0     1.008   -5.326049   -4.894478    1.126230
  48 H     1.0000    0     1.008    7.806147    2.345209    2.379719
  49 H     1.0000    0     1.008   -5.062932    4.223761   -0.946254
  50 H     1.0000    0     1.008   -6.648958    4.145504    1.945709
  51 H     1.0000    0     1.008    9.969415   -0.475107   -4.109200
  52 H     1.0000    0     1.008   11.601133   -2.257777   -1.811038
  53 H     1.0000    0     1.008   -2.035061   -4.131546    3.178667
  54 H     1.0000    0     1.008    1.129722   -4.627013    2.378419
  55 H     1.0000    0     1.008    0.216856   -1.805682    3.868865
  56 H     1.0000    0     1.008    3.129156   -0.125559   -5.298274
  57 H     1.0000    0     1.008    0.161727   -1.573199   -5.440265
  58 H     1.0000    0     1.008    0.457533    1.527503   -4.271837
  59 H     1.0000    0     1.008   11.803144    1.290386    1.035712
  60 H     1.0000    0     1.008   11.529567    3.017636   -1.775409
  61 H     1.0000    0     1.008   -7.547689    0.235500    4.158274
  62 H     1.0000    0     1.008   -5.099475   -2.023477    4.164057
  63 H     1.0000    0     1.008   -4.418129    1.179580    4.758642
  64 H     1.0000    0     1.008  -12.451260    1.040185   -1.446173
  65 H     1.0000    0     1.008   -9.851836    4.871321   -1.108925
  66 H     1.0000    0     1.008   -8.569175    2.736633   -3.287519
  67 H     1.0000    0     1.008    6.068982   -3.576836    2.344708
  68 H     1.0000    0     1.008    8.775824   -1.710941    2.806073
  69 H     1.0000    0     1.008  -12.531513   -2.924226   -3.316845
  70 H     1.0000    0     1.008  -10.078168   -1.251303   -4.862881
  71 H     1.0000    0     1.008   -9.604858   -4.421298   -3.916616
  72 H     1.0000    0     1.008  -12.523328   -3.569848    1.315380
  73 H     1.0000    0     1.008   -9.897465   -5.536574    0.710306
  74 H     1.0000    0     1.008   -9.737938   -3.218485    3.112182
  75 H     1.0000    0     1.008  -12.455714    2.844707    2.335628
  76 H     1.0000    0     1.008    8.496479   -6.730632    1.156841
  77 H     1.0000    0     1.008    5.437434    5.688705   -3.620471
  78 H     1.0000    0     1.008    7.450941    8.300609   -3.051212
  79 H     1.0000    0     1.008    8.702215    5.386043   -4.142421
  80 H     1.0000    0     1.008    7.689012    9.108750    1.338998
  81 H     1.0000    0     1.008    8.013508    6.497967    3.648358
  82 H     1.0000    0     1.008    7.645360   -9.349080    5.239031
  83 C     6.0000    0    12.011    6.839234  -11.202223    4.836569
  84 H     1.0000    0     1.008    8.092845  -12.687523    5.550447
  85 H     1.0000    0     1.008    5.033492  -11.417948    5.826368
  86 C     6.0000    0    12.011    6.443754  -11.557605    2.040320
  87 O     8.0000    0    15.999    7.006337   -9.908163    0.508306
  88 C     6.0000    0    12.011    5.322538  -14.031043    1.188349
  89 H     1.0000    0     1.008    6.499515  -15.597954    1.855579
  90 H     1.0000    0     1.008    3.456385  -14.276958    2.052354
  91 H     1.0000    0     1.008    5.159096  -14.093768   -0.864884
  92 H     1.0000    0     1.008  -13.644153    4.593365    6.798641
  93 C     6.0000    0    12.011  -14.905954    6.219642    6.703847
  94 H     1.0000    0     1.008  -16.620105    5.851991    7.805092
  95 H     1.0000    0     1.008  -13.992281    7.870500    7.557215
  96 C     6.0000    0    12.011  -15.609652    6.813908    4.010507
  97 O     8.0000    0    15.999  -14.768506    5.586503    2.230344
  98 C     6.0000    0    12.011  -17.395666    8.989391    3.582681
  99 H     1.0000    0     1.008  -19.173655    8.633597    4.582529
 100 H     1.0000    0     1.008  -16.592738   10.717300    4.393317
 101 H     1.0000    0     1.008  -17.758973    9.255427    1.571904

--------------------------------
INTERNAL COORDINATES (ANGSTROEM)
--------------------------------
 O      0   0   0     0.000000000000     0.00000000     0.00000000
 O      1   0   0    11.588931184077     0.00000000     0.00000000
 C      2   1   0     5.795181687752    10.69065041     0.00000000
 C      3   2   1     1.609699371939    45.91912331   141.39594935
 C      3   2   4     1.571919369317   135.48165665   292.61105830
 C      4   3   2     1.575640162991   107.77454754   285.47357910
 C      5   3   2     1.579514475421   117.91474378   211.29790383
 C      6   4   3     1.539876762906   110.97874204   171.88771529
 C      8   6   4     1.557778919456   112.47164501   301.71336841
 C      7   5   3     1.562554744146   107.56293612   309.66337622
 C      4   3   2     1.559367355886   111.35620114    46.80879574
 C      3   2   9     1.549528619109   113.80294372   112.36037936
 C      5   3   2     1.541958030095   110.52839924   343.89845782
 C     13   5   3     1.537961749754   113.14972355    54.63656592
 C      9   8   6     1.534212947908   108.38666676    60.49175085
 C     12   3   2     1.534665561487   113.90410383   143.52997522
 C      8   6   4     1.555473673282   120.52980808   178.27382248
 C     10   7   5     1.576498284438   116.75224458   188.16206262
 C      7   5   3     1.571277741171   107.46122398   193.63125193
 C      9   8   6     1.540199020951   100.65750497   182.44642834
 C      3   2   9     1.554548776200    65.82979815   211.00850036
 C      4   3   2     1.554697818116   111.58997270   164.42807127
 C     20   9   8     1.549121509402   104.44907661    40.63740696
 C      7   5   3     1.546199673402   112.78036502    74.67425843
 C      1   2   9     1.439805397855    71.48680462    49.00826524
 C     25   1   2     1.527660570989   110.84856154   287.97273261
 C      2   1  25     1.434564357242    35.71907686    93.97472031
 C     17   8   6     1.517449171982   117.87371805   281.82006376
 C     18  10   7     1.549050159454   107.24703823   151.30435468
 C     18  10   7     1.541739542738   113.69993327   269.57548459
 C     28  17   8     1.510126198346   118.29615194   313.04271646
 C     28  17   8     1.341367811803   120.77077903   136.11464549
 H      5   3   2     1.094387223749   105.06605512    98.21911667
 H      6   4   3     1.094906121074   107.16655218    55.60072140
 H      8   6   4     1.096302025331   107.66717135    56.71717427
 H     10   7   5     1.099470651387   104.08420623   302.63186455
 H     11   4   3     1.095327584879   108.75968304    70.57655335
 H     11   4   3     1.091835468522   110.61759609   314.98682520
 H     12   3   2     1.096029142390   109.47699237    20.82207307
 H     12   3   2     1.094148442237   110.17786989   264.19023505
 H     13   5   3     1.094510825067   110.30427285   292.61077659
 H     13   5   3     1.094581891837   109.96486588   176.33758599
 H     14  13   5     1.096041988131   109.50868534    71.84808633
 H     14  13   5     1.093670665045   108.78127745   187.28038512
 H     15   9   8     1.096071961667   110.80316704   182.37384131
 H     15   9   8     1.095985765540   108.52787816    66.30328927
 H     16  12   3     1.095082599565   108.06508883   178.38028557
 H     16  12   3     1.094168524794   110.78478865   293.70911534
 H     17   8   6     1.094777360193   109.08612022    43.89125324
 H     19   7   5     1.094483459026   109.95644897    10.84550699
 H     19   7   5     1.094138819464   109.29015865   255.09512124
 H     20   9   8     1.096035834496   109.10820676   282.77724725
 H     20   9   8     1.093003906472   112.93846776   163.35491720
 H     21   3   2     1.089990460832   110.94350365   210.30848022
 H     21   3   2     1.091342503139   111.35779251   328.68246758
 H     21   3   2     1.089791465003   113.51119752    89.84986378
 H     22   4   3     1.091516531823   110.78979429   185.15030822
 H     22   4   3     1.092354710682   110.96770328   303.12624555
 H     22   4   3     1.089378867257   114.06156073    64.82697939
 H     23  20   9     1.093627765639   111.45475176    98.03238815
 H     23  20   9     1.093081939402   111.31446006   216.75805666
 H     24   7   5     1.089843000739   110.24805221   168.37166512
 H     24   7   5     1.090698695110   113.37760687   289.43780145
 H     24   7   5     1.094059932311   110.37376789    50.02754960
 H     25   1   2     1.098382269681   107.14620005   169.28066897
 H     26  25   1     1.096427402841   109.43042052   299.42549452
 H     26  25   1     1.096411713982   108.24996341   184.36564937
 H     27   2   1     1.093141529158   109.28506799    23.55445379
 H     27   2   1     1.093021483304   106.02200391   138.50411091
 H     29  18  10     1.095514309228   110.51328850   175.52735827
 H     29  18  10     1.095475087509   111.44989315   295.51802604
 H     29  18  10     1.093803093408   111.30479045    55.84819525
 H     30  18  10     1.094956554371   110.04351781   177.28405666
 H     30  18  10     1.093779786287   110.41846206   295.82719584
 H     30  18  10     1.090081990605   112.86576555    57.00380860
 H      1   2  27     0.974681242306   143.54294732   359.40187895
 H      2   1  76     0.973931557454    74.47192975   188.45208473
 H     31  28  17     1.095538676013   111.07276572    70.13137965
 H     31  28  17     1.093091774540   111.05812486   190.38425571
 H     31  28  17     1.096014918205   111.55869384   311.37793940
 H     32  28  17     1.086669730748   121.61754379   176.51688127
 H     32  28  17     1.086796469581   121.45373929   356.19484689
 H     77   2   1     2.605624231040   114.54927576   265.16374513
 C     83  77   2     1.090407149392   112.57827483   191.05442300
 H     84  83  77     1.095700645212   109.93351255   119.82733148
 H     84  83  77     1.095658410662   109.96960366   237.10207450
 C     84  83  77     1.506223392118   111.00941027   358.56043552
 O     87  84  83     1.227899257958   121.74756451     0.33479263
 C     87  84  83     1.506146236854   117.21331672   180.36189313
 H     89  87  84     1.095496732266   109.71371089   302.95235225
 H     89  87  84     1.095985862732   109.46682786    59.76501707
 H     89  87  84     1.090466275464   110.85176311   181.17671263
 H     76   1   2     2.613336281298   117.51215577   270.10918743
 C     93  76   1     1.090401031798   112.65916591   181.82175060
 H     94  93  76     1.095566229137   110.02226240   124.02639827
 H     94  93  76     1.095839674464   109.87939291   241.24252823
 C     94  93  76     1.506289883276   111.08095194     2.46663250
 O     97  94  93     1.227763229183   121.73000507   358.67403621
 C     97  94  93     1.506586028541   117.18079487   178.73758222
 H     99  97  94     1.095732850349   109.56063053   301.13614266
 H     99  97  94     1.095728123067   109.60669759    57.89559210
 H     99  97  94     1.090411806688   110.84849844   179.55690518

---------------------------
INTERNAL COORDINATES (A.U.)
---------------------------
 O      0   0   0     0.000000000000     0.00000000     0.00000000
 O      1   0   0    21.899906122766     0.00000000     0.00000000
 C      2   1   0    10.951306286166    10.69065041     0.00000000
 C      3   2   1     3.041890970910    45.91912331   141.39594935
 C      3   2   4     2.970497112615   135.48165665   292.61105830
 C      4   3   2     2.977528393659   107.77454754   285.47357910
 C      5   3   2     2.984849783110   117.91474378   211.29790383
 C      6   4   3     2.909945361882   110.97874204   171.88771529
 C      8   6   4     2.943775534968   112.47164501   301.71336841
 C      7   5   3     2.952800535696   107.56293612   309.66337622
 C      4   3   2     2.946777244802   111.35620114    46.80879574
 C      3   2   9     2.928184726789   113.80294372   112.36037936
 C      5   3   2     2.913878386879   110.52839924   343.89845782
 C     13   5   3     2.906326511481   113.14972355    54.63656592
 C      9   8   6     2.899242302662   108.38666676    60.49175085
 C     12   3   2     2.900097618370   113.90410383   143.52997522
 C      8   6   4     2.939419251028   120.52980808   178.27382248
 C     10   7   5     2.979150008185   116.75224458   188.16206262
 C      7   5   3     2.969284611139   107.46122398   193.63125193
 C      9   8   6     2.910554341331   100.65750497   182.44642834
 C      3   2   9     2.937671448841    65.82979815   211.00850036
 C      4   3   2     2.937953097244   111.58997270   164.42807127
 C     20   9   8     2.927415400937   104.44907661    40.63740696
 C      7   5   3     2.921893931087   112.78036502    74.67425843
 C      1   2   9     2.720837888087    71.48680462    49.00826524
 C     25   1   2     2.886860104759   110.84856154   287.97273261
 C      2   1  25     2.710933756673    35.71907686    93.97472031
 C     17   8   6     2.867563357191   117.87371805   281.82006376
 C     18  10   7     2.927280569076   107.24703823   151.30435468
 C     18  10   7     2.913465505611   113.69993327   269.57548459
 C     28  17   8     2.853724942533   118.29615194   313.04271646
 C     28  17   8     2.534817809165   120.77077903   136.11464549
 H      5   3   2     2.068092137348   105.06605512    98.21911667
 H      6   4   3     2.069072711184   107.16655218    55.60072140
 H      8   6   4     2.071710587939   107.66717135    56.71717427
 H     10   7   5     2.077698423406   104.08420623   302.63186455
 H     11   4   3     2.069869162351   108.75968304    70.57655335
 H     11   4   3     2.063270018808   110.61759609   314.98682520
 H     12   3   2     2.071194913914   109.47699237    20.82207307
 H     12   3   2     2.067640905684   110.17786989   264.19023505
 H     13   5   3     2.068325709989   110.30427285   292.61077659
 H     13   5   3     2.068460006722   109.96486588   176.33758599
 H     14  13   5     2.071219188846   109.50868534    71.84808633
 H     14  13   5     2.066738037639   108.78127745   187.28038512
 H     15   9   8     2.071275830621   110.80316704   182.37384131
 H     15   9   8     2.071112943546   108.52787816    66.30328927
 H     16  12   3     2.069406207200   108.06508883   178.38028557
 H     16  12   3     2.067678856217   110.78478865   293.70911534
 H     17   8   6     2.068829388383   109.08612022    43.89125324
 H     19   7   5     2.068273995666   109.95644897    10.84550699
 H     19   7   5     2.067622721280   109.29015865   255.09512124
 H     20   9   8     2.071207560161   109.10820676   282.77724725
 H     20   9   8     2.065478046537   112.93846776   163.35491720
 H     21   3   2     2.059783459559   110.94350365   210.30848022
 H     21   3   2     2.062338449240   111.35779251   328.68246758
 H     21   3   2     2.059407411940   113.51119752    89.84986378
 H     22   4   3     2.062667315792   110.78979429   185.15030822
 H     22   4   3     2.064251244288   110.96770328   303.12624555
 H     22   4   3     2.058627715197   114.06156073    64.82697939
 H     23  20   9     2.066656969510   111.45475176    98.03238815
 H     23  20   9     2.065625507405   111.31446006   216.75805666
 H     24   7   5     2.059504800368   110.24805221   168.37166512
 H     24   7   5     2.061121828383   113.37760687   289.43780145
 H     24   7   5     2.067473646165   110.37376789    50.02754960
 H     25   1   2     2.075641680052   107.14620005   169.28066897
 H     26  25   1     2.071947517095   109.43042052   299.42549452
 H     26  25   1     2.071917869449   108.24996341   184.36564937
 H     27   2   1     2.065738115724   109.28506799    23.55445379
 H     27   2   1     2.065511261936   106.02200391   138.50411091
 H     29  18  10     2.070222020233   110.51328850   175.52735827
 H     29  18  10     2.070147901926   111.44989315   295.51802604
 H     29  18  10     2.066988290977   111.30479045    55.84819525
 H     30  18  10     2.069168016304   110.04351781   177.28405666
 H     30  18  10     2.066944246901   110.41846206   295.82719584
 H     30  18  10     2.059956425764   112.86576555    57.00380860
 H      1   2  27     1.841880615829   143.54294732   359.40187895
 H      2   1  76     1.840463916771    74.47192975   188.45208473
 H     31  28  17     2.070268066784   111.07276572    70.13137965
 H     31  28  17     2.065644093122   111.05812486   190.38425571
 H     31  28  17     2.071168034100   111.55869384   311.37793940
 H     32  28  17     2.053508189136   121.61754379   176.51688127
 H     32  28  17     2.053747690821   121.45373929   356.19484689
 H     77   2   1     4.923916204574   114.54927576   265.16374513
 C     83  77   2     2.060570886821   112.57827483   191.05442300
 H     84  83  77     2.070574144211   109.93351255   119.82733148
 H     84  83  77     2.070494332478   109.96960366   237.10207450
 C     84  83  77     2.846349707608   111.00941027   358.56043552
 O     87  84  83     2.320393317586   121.74756451     0.33479263
 C     87  84  83     2.846203905290   117.21331672   180.36189313
 H     89  87  84     2.070188804589   109.71371089   302.95235225
 H     89  87  84     2.071113127213   109.46682786    59.76501707
 H     89  87  84     2.060682618905   110.85176311   181.17671263
 H     76   1   2     4.938489867494   117.51215577   270.10918743
 C     93  76   1     2.060559326243   112.65916591   181.82175060
 H     94  93  76     2.070320134641   110.02226240   124.02639827
 H     94  93  76     2.070836871423   109.87939291   241.24252823
 C     94  93  76     2.846475357689   111.08095194     2.46663250
 O     97  94  93     2.320136260455   121.73000507   358.67403621
 C     97  94  93     2.847034991135   117.18079487   178.73758222
 H     99  97  94     2.070635003101   109.56063053   301.13614266
 H     99  97  94     2.070626069833   109.60669759    57.89559210
 H     99  97  94     2.060579687835   110.84849844   179.55690518

---------------------
BASIS SET INFORMATION
---------------------
There are 3 groups of distinct atoms

 Group   1 Type O   : 11s5p2d contracted to 4s3p2d pattern {6311/311/11}
 Group   2 Type C   : 11s5p2d contracted to 4s3p2d pattern {6311/311/11}
 Group   3 Type H   : 5s2p contracted to 3s2p pattern {311/11}

Atom   0O    basis set group =>   1
Atom   1O    basis set group =>   1
Atom   2C    basis set group =>   2
Atom   3C    basis set group =>   2
Atom   4C    basis set group =>   2
Atom   5C    basis set group =>   2
Atom   6C    basis set group =>   2
Atom   7C    basis set group =>   2
Atom   8C    basis set group =>   2
Atom   9C    basis set group =>   2
Atom  10C    basis set group =>   2
Atom  11C    basis set group =>   2
Atom  12C    basis set group =>   2
Atom  13C    basis set group =>   2
Atom  14C    basis set group =>   2
Atom  15C    basis set group =>   2
Atom  16C    basis set group =>   2
Atom  17C    basis set group =>   2
Atom  18C    basis set group =>   2
Atom  19C    basis set group =>   2
Atom  20C    basis set group =>   2
Atom  21C    basis set group =>   2
Atom  22C    basis set group =>   2
Atom  23C    basis set group =>   2
Atom  24C    basis set group =>   2
Atom  25C    basis set group =>   2
Atom  26C    basis set group =>   2
Atom  27C    basis set group =>   2
Atom  28C    basis set group =>   2
Atom  29C    basis set group =>   2
Atom  30C    basis set group =>   2
Atom  31C    basis set group =>   2
Atom  32H    basis set group =>   3
Atom  33H    basis set group =>   3
Atom  34H    basis set group =>   3
Atom  35H    basis set group =>   3
Atom  36H    basis set group =>   3
Atom  37H    basis set group =>   3
Atom  38H    basis set group =>   3
Atom  39H    basis set group =>   3
Atom  40H    basis set group =>   3
Atom  41H    basis set group =>   3
Atom  42H    basis set group =>   3
Atom  43H    basis set group =>   3
Atom  44H    basis set group =>   3
Atom  45H    basis set group =>   3
Atom  46H    basis set group =>   3
Atom  47H    basis set group =>   3
Atom  48H    basis set group =>   3
Atom  49H    basis set group =>   3
Atom  50H    basis set group =>   3
Atom  51H    basis set group =>   3
Atom  52H    basis set group =>   3
Atom  53H    basis set group =>   3
Atom  54H    basis set group =>   3
Atom  55H    basis set group =>   3
Atom  56H    basis set group =>   3
Atom  57H    basis set group =>   3
Atom  58H    basis set group =>   3
Atom  59H    basis set group =>   3
Atom  60H    basis set group =>   3
Atom  61H    basis set group =>   3
Atom  62H    basis set group =>   3
Atom  63H    basis set group =>   3
Atom  64H    basis set group =>   3
Atom  65H    basis set group =>   3
Atom  66H    basis set group =>   3
Atom  67H    basis set group =>   3
Atom  68H    basis set group =>   3
Atom  69H    basis set group =>   3
Atom  70H    basis set group =>   3
Atom  71H    basis set group =>   3
Atom  72H    basis set group =>   3
Atom  73H    basis set group =>   3
Atom  74H    basis set group =>   3
Atom  75H    basis set group =>   3
Atom  76H    basis set group =>   3
Atom  77H    basis set group =>   3
Atom  78H    basis set group =>   3
Atom  79H    basis set group =>   3
Atom  80H    basis set group =>   3
Atom  81H    basis set group =>   3
Atom  82H    basis set group =>   3
Atom  83C    basis set group =>   2
Atom  84H    basis set group =>   3
Atom  85H    basis set group =>   3
Atom  86C    basis set group =>   2
Atom  87O    basis set group =>   1
Atom  88C    basis set group =>   2
Atom  89H    basis set group =>   3
Atom  90H    basis set group =>   3
Atom  91H    basis set group =>   3
Atom  92H    basis set group =>   3
Atom  93C    basis set group =>   2
Atom  94H    basis set group =>   3
Atom  95H    basis set group =>   3
Atom  96C    basis set group =>   2
Atom  97O    basis set group =>   1
Atom  98C    basis set group =>   2
Atom  99H    basis set group =>   3
Atom 100H    basis set group =>   3
Atom 101H    basis set group =>   3
---------------------------------
AUXILIARY/J BASIS SET INFORMATION
---------------------------------
There are 3 groups of distinct atoms

 Group   1 Type O   : 12s5p4d2f1g contracted to 6s4p3d1f1g pattern {711111/2111/211/2/1}
 Group   2 Type C   : 12s5p4d2f1g contracted to 6s4p3d1f1g pattern {711111/2111/211/2/1}
 Group   3 Type H   : 5s2p1d contracted to 3s1p1d pattern {311/2/1}

Atom   0O    basis set group =>   1
Atom   1O    basis set group =>   1
Atom   2C    basis set group =>   2
Atom   3C    basis set group =>   2
Atom   4C    basis set group =>   2
Atom   5C    basis set group =>   2
Atom   6C    basis set group =>   2
Atom   7C    basis set group =>   2
Atom   8C    basis set group =>   2
Atom   9C    basis set group =>   2
Atom  10C    basis set group =>   2
Atom  11C    basis set group =>   2
Atom  12C    basis set group =>   2
Atom  13C    basis set group =>   2
Atom  14C    basis set group =>   2
Atom  15C    basis set group =>   2
Atom  16C    basis set group =>   2
Atom  17C    basis set group =>   2
Atom  18C    basis set group =>   2
Atom  19C    basis set group =>   2
Atom  20C    basis set group =>   2
Atom  21C    basis set group =>   2
Atom  22C    basis set group =>   2
Atom  23C    basis set group =>   2
Atom  24C    basis set group =>   2
Atom  25C    basis set group =>   2
Atom  26C    basis set group =>   2
Atom  27C    basis set group =>   2
Atom  28C    basis set group =>   2
Atom  29C    basis set group =>   2
Atom  30C    basis set group =>   2
Atom  31C    basis set group =>   2
Atom  32H    basis set group =>   3
Atom  33H    basis set group =>   3
Atom  34H    basis set group =>   3
Atom  35H    basis set group =>   3
Atom  36H    basis set group =>   3
Atom  37H    basis set group =>   3
Atom  38H    basis set group =>   3
Atom  39H    basis set group =>   3
Atom  40H    basis set group =>   3
Atom  41H    basis set group =>   3
Atom  42H    basis set group =>   3
Atom  43H    basis set group =>   3
Atom  44H    basis set group =>   3
Atom  45H    basis set group =>   3
Atom  46H    basis set group =>   3
Atom  47H    basis set group =>   3
Atom  48H    basis set group =>   3
Atom  49H    basis set group =>   3
Atom  50H    basis set group =>   3
Atom  51H    basis set group =>   3
Atom  52H    basis set group =>   3
Atom  53H    basis set group =>   3
Atom  54H    basis set group =>   3
Atom  55H    basis set group =>   3
Atom  56H    basis set group =>   3
Atom  57H    basis set group =>   3
Atom  58H    basis set group =>   3
Atom  59H    basis set group =>   3
Atom  60H    basis set group =>   3
Atom  61H    basis set group =>   3
Atom  62H    basis set group =>   3
Atom  63H    basis set group =>   3
Atom  64H    basis set group =>   3
Atom  65H    basis set group =>   3
Atom  66H    basis set group =>   3
Atom  67H    basis set group =>   3
Atom  68H    basis set group =>   3
Atom  69H    basis set group =>   3
Atom  70H    basis set group =>   3
Atom  71H    basis set group =>   3
Atom  72H    basis set group =>   3
Atom  73H    basis set group =>   3
Atom  74H    basis set group =>   3
Atom  75H    basis set group =>   3
Atom  76H    basis set group =>   3
Atom  77H    basis set group =>   3
Atom  78H    basis set group =>   3
Atom  79H    basis set group =>   3
Atom  80H    basis set group =>   3
Atom  81H    basis set group =>   3
Atom  82H    basis set group =>   3
Atom  83C    basis set group =>   2
Atom  84H    basis set group =>   3
Atom  85H    basis set group =>   3
Atom  86C    basis set group =>   2
Atom  87O    basis set group =>   1
Atom  88C    basis set group =>   2
Atom  89H    basis set group =>   3
Atom  90H    basis set group =>   3
Atom  91H    basis set group =>   3
Atom  92H    basis set group =>   3
Atom  93C    basis set group =>   2
Atom  94H    basis set group =>   3
Atom  95H    basis set group =>   3
Atom  96C    basis set group =>   2
Atom  97O    basis set group =>   1
Atom  98C    basis set group =>   2
Atom  99H    basis set group =>   3
Atom 100H    basis set group =>   3
Atom 101H    basis set group =>   3

Checking for AutoStart:
The File: betulin_aceton_freq.gbw exists
Trying to determine its content:
     ... Fine, the file contains calculation information
     ... Fine, the calculation information was read
     ... Fine, the file contains a basis set
     ... Fine, the basis set was read
     ... Fine, the file contains a geometry
     ... Fine, the geometry was read
     ... Fine, the file contains a set of orbitals
     ... Fine, the orbitals can be read
     => possible old guess file was deleted
     => GBW file was renamed to GES file
     => GES file is set as startup file
     => Guess is set to MORead
     ... now leaving AutoStart



           ************************************************************
           *        Program running with 4 parallel MPI-processes     *
           *              working on a common directory               *
           ************************************************************
------------------------------------------------------------------------------
                           ORCA GTO INTEGRAL CALCULATION
                           -- RI-GTO INTEGRALS CHOSEN --
------------------------------------------------------------------------------
------------------------------------------------------------------------------
                   ___                                                        
                  /   \      - P O W E R E D   B Y -                         
                 /     \                                                     
                 |  |  |   _    _      __       _____    __    __             
                 |  |  |  | |  | |    /  \     |  _  \  |  |  /  |          
                  \  \/   | |  | |   /    \    | | | |  |  | /  /          
                 / \  \   | |__| |  /  /\  \   | |_| |  |  |/  /          
                |  |  |   |  __  | /  /__\  \  |    /   |      \           
                |  |  |   | |  | | |   __   |  |    \   |  |\   \          
                \     /   | |  | | |  |  |  |  | |\  \  |  | \   \       
                 \___/    |_|  |_| |__|  |__|  |_| \__\ |__|  \__/        
                                                                              
                      - O R C A' S   B I G   F R I E N D -                    
                                      &                                       
                       - I N T E G R A L  F E E D E R -                       
                                                                              
 v1 FN, 2020, v2 2021                                                         
------------------------------------------------------------------------------


Reading SHARK input file betulin_aceton_freq.SHARKINP.tmp ... ok
----------------------
SHARK INTEGRAL PACKAGE
----------------------

Number of atoms                             ...    102
Number of basis functions                   ...   1478
Number of shells                            ...    670
Maximum angular momentum                    ...      2
Integral batch strategy                     ... SHARK/LIBINT Hybrid
RI-J (if used) integral strategy            ... SPLIT-RIJ (Revised 2003 algorithm where possible)
Printlevel                                  ...      1
Contraction scheme used                     ... SEGMENTED contraction
Coulomb Range Separation                    ... NOT USED
Exchange Range Separation                   ... NOT USED
Finite Nucleus Model                        ... NOT USED
Auxiliary Coulomb fitting basis             ... AVAILABLE
   # of basis functions in Aux-J            ...   2642
   # of shells in Aux-J                     ...    910
   Maximum angular momentum in Aux-J        ...      4
Auxiliary J/K fitting basis                 ... NOT available
Auxiliary Correlation fitting basis         ... NOT available
Auxiliary 'external' fitting basis          ... NOT available
Integral threshold                          ...     1.000000e-10
Primitive cut-off                           ...     1.000000e-11
Primitive pair pre-selection threshold      ...     1.000000e-11

Calculating pre-screening integrals         ... done (  0.1 sec) Dimension = 670
Organizing shell pair data                  ... done (  0.5 sec)
Shell pair information
Total number of shell pairs                 ...    224785
Shell pairs after pre-screening             ...    145219
Total number of primitive shell pairs       ...    667461
Primitive shell pairs kept                  ...    283378
          la=0 lb=0:  43232 shell pairs
          la=1 lb=0:  55770 shell pairs
          la=1 lb=1:  17662 shell pairs
          la=2 lb=0:  16878 shell pairs
          la=2 lb=1:  10227 shell pairs
          la=2 lb=2:   1450 shell pairs

Calculating one electron integrals          ... done (  0.2 sec)
Calculating RI/J V-Matrix + Cholesky decomp.... done (  0.2 sec)
Calculating Nuclear repulsion               ... done (  0.0 sec) ENN=   5071.330316192465 Eh

SHARK setup successfully completed in   1.6 seconds

Maximum memory used throughout the entire GTOINT-calculation: 198.5 MB


           ************************************************************
           *        Program running with 4 parallel MPI-processes     *
           *              working on a common directory               *
           ************************************************************
-------------------------------------------------------------------------------
                                 ORCA SCF
-------------------------------------------------------------------------------

------------
SCF SETTINGS
------------
Hamiltonian:
 Density Functional     Method          .... DFT(GTOs)
 Exchange Functional    Exchange        .... B88
   X-Alpha parameter    XAlpha          ....  0.666667
   Becke's b parameter  XBeta           ....  0.004200
 Correlation Functional Correlation     .... LYP
 LDA part of GGA corr.  LDAOpt          .... VWN-5
 Gradients option       PostSCFGGA      .... off
 Hybrid DFT is turned on
   Fraction HF Exchange ScalHFX         ....  0.200000
   Scaling of DF-GGA-X  ScalDFX         ....  0.720000
   Scaling of DF-GGA-C  ScalDFC         ....  0.810000
   Scaling of DF-LDA-C  ScalLDAC        ....  1.000000
   Perturbative correction              ....  0.000000
   Density functional embedding theory  .... OFF
   NL short-range parameter             ....  4.800000
 RI-approximation to the Coulomb term is turned on
   Number of AuxJ basis functions       .... 2642
   RIJ-COSX (HFX calculated with COS-X)).... on


General Settings:
 Integral files         IntName         .... betulin_aceton_freq
 Hartree-Fock type      HFTyp           .... RHF
 Total Charge           Charge          ....    0
 Multiplicity           Mult            ....    1
 Number of Electrons    NEL             ....  310
 Basis Dimension        Dim             .... 1478
 Nuclear Repulsion      ENuc            ....   5071.3303161925 Eh

Convergence Acceleration:
 DIIS                   CNVDIIS         .... on
   Start iteration      DIISMaxIt       ....    12
   Startup error        DIISStart       ....  0.200000
   # of expansion vecs  DIISMaxEq       ....     5
   Bias factor          DIISBfac        ....   1.050
   Max. coefficient     DIISMaxC        ....  10.000
 Trust-Rad. Augm. Hess. CNVTRAH         .... auto
   Auto Start mean grad. ratio tolernc. ....  1.125000
   Auto Start start iteration           ....     1
   Auto Start num. interpolation iter.  ....    10
   Max. Number of Micro iterations      ....    16
   Max. Number of Macro iterations      .... Maxiter - #DIIS iter
   Number of Davidson start vectors     ....     2
   Converg. threshold I  (grad. norm)   ....   5.000e-05
   Converg. threshold II (energy diff.) ....   1.000e-06
   Grad. Scal. Fac. for Micro threshold ....   0.100
   Minimum threshold for Micro iter.    ....   0.010
   NR start threshold (gradient norm)   ....   0.001
   Initial trust radius                 ....   0.400
   Minimum AH scaling param. (alpha)    ....   1.000
   Maximum AH scaling param. (alpha)    .... 1000.000
   Orbital update algorithm             .... Taylor
   White noise on init. David. guess    .... on
   Maximum white noise                  ....   0.010
   Quad. conv. algorithm                .... NR
 SOSCF                  CNVSOSCF        .... on
   Start iteration      SOSCFMaxIt      ....   150
   Startup grad/error   SOSCFStart      ....  0.003300
 Level Shifting         CNVShift        .... on
   Level shift para.    LevelShift      ....    0.2500
   Turn off err/grad.   ShiftErr        ....    0.0010
 Zerner damping         CNVZerner       .... off
 Static damping         CNVDamp         .... on
   Fraction old density DampFac         ....    0.7000
   Max. Damping (<1)    DampMax         ....    0.9800
   Min. Damping (>=0)   DampMin         ....    0.0000
   Turn off err/grad.   DampErr         ....    0.1000
 Fernandez-Rico         CNVRico         .... off

SCF Procedure:
 Maximum # iterations   MaxIter         ....   125
 SCF integral mode      SCFMode         .... Direct
   Integral package                     .... SHARK and LIBINT hybrid scheme
 Reset frequency        DirectResetFreq ....    20
 Integral Threshold     Thresh          ....  1.000e-10 Eh
 Primitive CutOff       TCut            ....  1.000e-11 Eh

Convergence Tolerance:
 Convergence Check Mode ConvCheckMode   .... Total+1el-Energy
 Convergence forced     ConvForced      .... 0
 Energy Change          TolE            ....  1.000e-06 Eh
 1-El. energy change                    ....  1.000e-03 Eh
 Orbital Gradient       TolG            ....  5.000e-05
 Orbital Rotation angle TolX            ....  5.000e-05
 DIIS Error             TolErr          ....  1.000e-06


Diagonalization of the overlap matrix:
Smallest eigenvalue                        ... 3.658e-08
Time for diagonalization                   ...    0.154 sec
Threshold for overlap eigenvalues          ... 1.000e-08
Number of eigenvalues below threshold      ... 0
Time for construction of square roots      ...    0.151 sec
Total time needed                          ...    0.313 sec

---------------------
INITIAL GUESS: MOREAD
---------------------
Guess MOs are being read from file: betulin_aceton_freq.ges
Input Geometry matches current geometry (good)
Input basis set matches current basis set (good)
MOs were renormalized
MOs were reorthogonalized (Cholesky)
                      ------------------
                      INITIAL GUESS DONE (   0.6 sec)
                      ------------------
-------------------
DFT GRID GENERATION
-------------------

General Integration Accuracy     IntAcc      ... 4.388
Radial Grid Type                 RadialGrid  ... OptM3 with GC (2021)
Angular Grid (max. ang.)         AngularGrid ... 4 (Lebedev-302)
Angular grid pruning method      GridPruning ... 4 (adaptive)
Weight generation scheme         WeightScheme... Becke
Basis function cutoff            BFCut       ... 1.0000e-10
Integration weight cutoff        WCut        ... 1.0000e-14
Angular grids for H and He will be reduced by one unit
Partially contracted basis set               ... off
Rotationally invariant grid construction     ... off

Total number of grid points                  ...   444615
Total number of batches                      ...     7000
Average number of points per batch           ...       63
Average number of grid points per atom       ...     4359
Time for grid setup =    3.553 sec

--------------------
COSX GRID GENERATION
--------------------

GRIDX 1
-------
General Integration Accuracy     IntAcc      ... 3.816
Radial Grid Type                 RadialGrid  ... OptM3 with GC (2021)
Angular Grid (max. ang.)         AngularGrid ... 1 (Lebedev-50)
Angular grid pruning method      GridPruning ... 4 (adaptive)
Weight generation scheme         WeightScheme... Becke
Basis function cutoff            BFCut       ... 1.0000e-10
Integration weight cutoff        WCut        ... 1.0000e-14
Angular grids for H and He will be reduced by one unit
Partially contracted basis set               ... on
Rotationally invariant grid construction     ... off

Total number of grid points                  ...    55271
Total number of batches                      ...      913
Average number of points per batch           ...       60
Average number of grid points per atom       ...      542
UseSFitting                                  ... on

GRIDX 2
-------
General Integration Accuracy     IntAcc      ... 4.020
Radial Grid Type                 RadialGrid  ... OptM3 with GC (2021)
Angular Grid (max. ang.)         AngularGrid ... 2 (Lebedev-110)
Angular grid pruning method      GridPruning ... 4 (adaptive)
Weight generation scheme         WeightScheme... Becke
Basis function cutoff            BFCut       ... 1.0000e-10
Integration weight cutoff        WCut        ... 1.0000e-14
Angular grids for H and He will be reduced by one unit
Partially contracted basis set               ... on
Rotationally invariant grid construction     ... off

Total number of grid points                  ...   121824
Total number of batches                      ...     1950
Average number of points per batch           ...       62
Average number of grid points per atom       ...     1194
UseSFitting                                  ... on

GRIDX 3
-------
General Integration Accuracy     IntAcc      ... 4.338
Radial Grid Type                 RadialGrid  ... OptM3 with GC (2021)
Angular Grid (max. ang.)         AngularGrid ... 3 (Lebedev-194)
Angular grid pruning method      GridPruning ... 4 (adaptive)
Weight generation scheme         WeightScheme... Becke
Basis function cutoff            BFCut       ... 1.0000e-10
Integration weight cutoff        WCut        ... 1.0000e-14
Angular grids for H and He will be reduced by one unit
Partially contracted basis set               ... on
Rotationally invariant grid construction     ... off

Total number of grid points                  ...   269434
Total number of batches                      ...     4260
Average number of points per batch           ...       63
Average number of grid points per atom       ...     2642
UseSFitting                                  ... on

Time for X-Grid setup             =    6.380 sec


--------------------
CPCM SOLVATION MODEL
--------------------
CPCM parameters:
  Epsilon                                         ...      80.4000
  Refrac                                          ...       1.3300
  Rsolv                                           ...       1.3000
  Surface type                                    ... GAUSSIAN VDW
  Epsilon function type                           ...         CPCM
Radii:
 Radius for O  used is    3.4469 Bohr (=   1.8240 Ang.)
 Radius for C  used is    3.8550 Bohr (=   2.0400 Ang.)
 Radius for H  used is    2.4944 Bohr (=   1.3200 Ang.)
Calculating surface                               ...        done! (  0.0s)
GEPOL surface points                              ...         4825
GEPOL Volume                                      ...    4900.9793
GEPOL Surface-area                                ...    2357.3259
Calculating surface distance matrix               ...        done! (  0.1s)
Performing Cholesky decomposition & store         ...        done! (  0.6s)
Overall time for CPCM initialization              ...                 0.7s
--------------
SCF ITERATIONS
--------------
ITER       Energy         Delta-E        Max-DP      RMS-DP      [F,P]     Damp
               ***  Starting incremental Fock matrix formation  ***
                      *** Initiating the SOSCF procedure ***
                      *** Re-Reading the Fockian *** 
                      *** Removing any level shift *** 
ITER      Energy       Delta-E        Grad      Rot      Max-DP    RMS-DP
  0  -1709.08887907 -1709.0888790725  0.000000  0.000000  0.005826  0.000010
               *** Restarting incremental Fock matrix formation ***
                 **** Energy Check signals convergence ****
              ***Rediagonalizing the Fockian in SOSCF/NRSCF***

               *****************************************************
               *                     SUCCESS                       *
               *           SCF CONVERGED AFTER   1 CYCLES          *
               *****************************************************

Old exchange energy                            =    -48.369801356 Eh
New exchange energy                            =    -48.369852623 Eh
Exchange energy change after final integration =     -0.000051268 Eh
Total energy after final integration           =  -1709.088930340 Eh
Final COS-X integration done in                =   147.521 sec

----------------
TOTAL SCF ENERGY
----------------

Total Energy       :        -1709.08893034 Eh          -46506.67415 eV

Components:
Nuclear Repulsion  :         5071.33031619 Eh          137997.91358 eV
Electronic Energy  :        -6780.41924653 Eh         -184504.58773 eV
One Electron Energy:       -12418.06394940 Eh         -337912.69921 eV
Two Electron Energy:         5637.64470286 Eh          153408.11148 eV
Max COSX asymmetry :            0.00011639 Eh               0.00317 eV
CPCM Dielectric    :           -0.03373770 Eh              -0.91805 eV

Virial components:
Potential Energy   :        -3408.03690405 Eh          -92737.39884 eV
Kinetic Energy     :         1698.94797371 Eh           46230.72469 eV
Virial Ratio       :            2.00596896


DFT components:
N(Alpha)           :      155.000307901100 electrons
N(Beta)            :      155.000307901100 electrons
N(Total)           :      310.000615802200 electrons
E(X)               :     -191.776335016844 Eh       
E(C)               :      -12.095915005451 Eh       
E(XC)              :     -203.872250022295 Eh       
DFET-embed. en.    :        0.000000000000 Eh       
CPCM Solvation Model Properties:
Surface-charge          :           -0.06109754
Charge-correction       :           -0.00048777 Eh              -0.01327 eV
Free-energy (cav+disp)  :  This term is not implemented in the current solvation scheme

---------------
SCF CONVERGENCE
---------------

  Last Energy change         ...   -1.3733e-10  Tolerance :   1.0000e-06
  Last MAX-Density change    ...    8.5265e-14  Tolerance :   1.0000e-05
  Last RMS-Density change    ...    1.5281e-16  Tolerance :   1.0000e-06
  Last Orbital Gradient      ...    4.6017e-08  Tolerance :   5.0000e-05
  Last Orbital Rotation      ...    6.8692e-08  Tolerance :   5.0000e-05

             **** THE GBW FILE WAS UPDATED (betulin_aceton_freq.gbw) ****
             **** DENSITY betulin_aceton_freq.scfp WAS UPDATED ****
             **** ENERGY FILE WAS UPDATED (betulin_aceton_freq.en.tmp) ****
             **** THE GBW FILE WAS UPDATED (betulin_aceton_freq.gbw) ****
             **** DENSITY betulin_aceton_freq.scfp WAS UPDATED ****
----------------
ORBITAL ENERGIES
----------------

  NO   OCC          E(Eh)            E(eV) 
   0   2.0000     -19.157982      -521.3152 
   1   2.0000     -19.157753      -521.3090 
   2   2.0000     -19.134586      -520.6786 
   3   2.0000     -19.128431      -520.5111 
   4   2.0000     -10.288007      -279.9509 
   5   2.0000     -10.287939      -279.9491 
   6   2.0000     -10.213612      -277.9265 
   7   2.0000     -10.209509      -277.8149 
   8   2.0000     -10.185904      -277.1725 
   9   2.0000     -10.180611      -277.0285 
  10   2.0000     -10.180501      -277.0255 
  11   2.0000     -10.180307      -277.0202 
  12   2.0000     -10.180287      -277.0197 
  13   2.0000     -10.180076      -277.0139 
  14   2.0000     -10.178864      -276.9810 
  15   2.0000     -10.176904      -276.9276 
  16   2.0000     -10.175173      -276.8805 
  17   2.0000     -10.173747      -276.8417 
  18   2.0000     -10.170523      -276.7540 
  19   2.0000     -10.166154      -276.6351 
  20   2.0000     -10.165506      -276.6175 
  21   2.0000     -10.164592      -276.5926 
  22   2.0000     -10.163208      -276.5550 
  23   2.0000     -10.162438      -276.5340 
  24   2.0000     -10.160503      -276.4813 
  25   2.0000     -10.160446      -276.4798 
  26   2.0000     -10.159458      -276.4529 
  27   2.0000     -10.158953      -276.4392 
  28   2.0000     -10.158927      -276.4385 
  29   2.0000     -10.157681      -276.4045 
  30   2.0000     -10.157181      -276.3910 
  31   2.0000     -10.157050      -276.3874 
  32   2.0000     -10.156652      -276.3766 
  33   2.0000     -10.155970      -276.3580 
  34   2.0000     -10.155517      -276.3457 
  35   2.0000     -10.155423      -276.3431 
  36   2.0000     -10.152735      -276.2700 
  37   2.0000     -10.150667      -276.2137 
  38   2.0000     -10.149099      -276.1710 
  39   2.0000     -10.144941      -276.0579 
  40   2.0000      -1.056342       -28.7445 
  41   2.0000      -1.056184       -28.7402 
  42   2.0000      -1.003156       -27.2973 
  43   2.0000      -1.001100       -27.2413 
  44   2.0000      -0.858035       -23.3483 
  45   2.0000      -0.843398       -22.9500 
  46   2.0000      -0.819908       -22.3108 
  47   2.0000      -0.797396       -21.6982 
  48   2.0000      -0.781033       -21.2530 
  49   2.0000      -0.777046       -21.1445 
  50   2.0000      -0.772707       -21.0264 
  51   2.0000      -0.772616       -21.0239 
  52   2.0000      -0.761397       -20.7187 
  53   2.0000      -0.739113       -20.1123 
  54   2.0000      -0.730689       -19.8831 
  55   2.0000      -0.720285       -19.5999 
  56   2.0000      -0.709146       -19.2968 
  57   2.0000      -0.709070       -19.2948 
  58   2.0000      -0.705473       -19.1969 
  59   2.0000      -0.688743       -18.7416 
  60   2.0000      -0.679917       -18.5015 
  61   2.0000      -0.674951       -18.3663 
  62   2.0000      -0.671074       -18.2609 
  63   2.0000      -0.659802       -17.9541 
  64   2.0000      -0.655928       -17.8487 
  65   2.0000      -0.654930       -17.8216 
  66   2.0000      -0.642964       -17.4959 
  67   2.0000      -0.609226       -16.5779 
  68   2.0000      -0.599986       -16.3264 
  69   2.0000      -0.588126       -16.0037 
  70   2.0000      -0.572666       -15.5830 
  71   2.0000      -0.568388       -15.4666 
  72   2.0000      -0.545804       -14.8521 
  73   2.0000      -0.544397       -14.8138 
  74   2.0000      -0.541142       -14.7252 
  75   2.0000      -0.534278       -14.5384 
  76   2.0000      -0.520978       -14.1765 
  77   2.0000      -0.514382       -13.9970 
  78   2.0000      -0.503380       -13.6977 
  79   2.0000      -0.497208       -13.5297 
  80   2.0000      -0.488905       -13.3038 
  81   2.0000      -0.485360       -13.2073 
  82   2.0000      -0.471875       -12.8404 
  83   2.0000      -0.468397       -12.7457 
  84   2.0000      -0.464223       -12.6322 
  85   2.0000      -0.463180       -12.6038 
  86   2.0000      -0.463085       -12.6012 
  87   2.0000      -0.461447       -12.5566 
  88   2.0000      -0.460279       -12.5248 
  89   2.0000      -0.460067       -12.5191 
  90   2.0000      -0.458948       -12.4886 
  91   2.0000      -0.458208       -12.4685 
  92   2.0000      -0.447981       -12.1902 
  93   2.0000      -0.445786       -12.1304 
  94   2.0000      -0.443661       -12.0726 
  95   2.0000      -0.436140       -11.8680 
  96   2.0000      -0.434049       -11.8111 
  97   2.0000      -0.428075       -11.6485 
  98   2.0000      -0.420969       -11.4552 
  99   2.0000      -0.414391       -11.2762 
 100   2.0000      -0.411987       -11.2107 
 101   2.0000      -0.408367       -11.1122 
 102   2.0000      -0.407987       -11.1019 
 103   2.0000      -0.401025       -10.9124 
 104   2.0000      -0.399478       -10.8703 
 105   2.0000      -0.398552       -10.8452 
 106   2.0000      -0.395739       -10.7686 
 107   2.0000      -0.395412       -10.7597 
 108   2.0000      -0.395382       -10.7589 
 109   2.0000      -0.392312       -10.6754 
 110   2.0000      -0.391303       -10.6479 
 111   2.0000      -0.386058       -10.5052 
 112   2.0000      -0.380314       -10.3489 
 113   2.0000      -0.378968       -10.3122 
 114   2.0000      -0.378880       -10.3099 
 115   2.0000      -0.376652       -10.2492 
 116   2.0000      -0.375330       -10.2132 
 117   2.0000      -0.368524       -10.0280 
 118   2.0000      -0.365633        -9.9494 
 119   2.0000      -0.363025        -9.8784 
 120   2.0000      -0.361461        -9.8359 
 121   2.0000      -0.361047        -9.8246 
 122   2.0000      -0.359540        -9.7836 
 123   2.0000      -0.356162        -9.6916 
 124   2.0000      -0.355531        -9.6745 
 125   2.0000      -0.353631        -9.6228 
 126   2.0000      -0.349464        -9.5094 
 127   2.0000      -0.347992        -9.4693 
 128   2.0000      -0.342389        -9.3169 
 129   2.0000      -0.338393        -9.2081 
 130   2.0000      -0.336671        -9.1613 
 131   2.0000      -0.331049        -9.0083 
 132   2.0000      -0.330836        -9.0025 
 133   2.0000      -0.326469        -8.8837 
 134   2.0000      -0.324569        -8.8320 
 135   2.0000      -0.322807        -8.7840 
 136   2.0000      -0.318198        -8.6586 
 137   2.0000      -0.315576        -8.5872 
 138   2.0000      -0.311537        -8.4774 
 139   2.0000      -0.307507        -8.3677 
 140   2.0000      -0.302147        -8.2218 
 141   2.0000      -0.300224        -8.1695 
 142   2.0000      -0.299841        -8.1591 
 143   2.0000      -0.296589        -8.0706 
 144   2.0000      -0.289298        -7.8722 
 145   2.0000      -0.283539        -7.7155 
 146   2.0000      -0.278560        -7.5800 
 147   2.0000      -0.275953        -7.5091 
 148   2.0000      -0.268610        -7.3092 
 149   2.0000      -0.267124        -7.2688 
 150   2.0000      -0.262244        -7.1360 
 151   2.0000      -0.257851        -7.0165 
 152   2.0000      -0.250394        -6.8136 
 153   2.0000      -0.248444        -6.7605 
 154   2.0000      -0.234032        -6.3683 
 155   0.0000      -0.032649        -0.8884 
 156   0.0000      -0.032417        -0.8821 
 157   0.0000      -0.007153        -0.1946 
 158   0.0000      -0.004638        -0.1262 
 159   0.0000       0.000745         0.0203 
 160   0.0000       0.002975         0.0810 
 161   0.0000       0.004594         0.1250 
 162   0.0000       0.008665         0.2358 
 163   0.0000       0.014050         0.3823 
 164   0.0000       0.015115         0.4113 
 165   0.0000       0.017436         0.4745 
 166   0.0000       0.018689         0.5086 
 167   0.0000       0.021733         0.5914 
 168   0.0000       0.025002         0.6803 
 169   0.0000       0.027315         0.7433 
 170   0.0000       0.029803         0.8110 
 171   0.0000       0.031758         0.8642 
 172   0.0000       0.034458         0.9377 
 173   0.0000       0.035176         0.9572 
 174   0.0000       0.037721         1.0264 
 175   0.0000       0.039051         1.0626 
 176   0.0000       0.041446         1.1278 
 177   0.0000       0.044839         1.2201 
 178   0.0000       0.045845         1.2475 
 179   0.0000       0.047736         1.2990 
 180   0.0000       0.048776         1.3273 
 181   0.0000       0.050380         1.3709 
 182   0.0000       0.053111         1.4452 
 183   0.0000       0.053636         1.4595 
 184   0.0000       0.053964         1.4684 
 185   0.0000       0.057271         1.5584 
 186   0.0000       0.058858         1.6016 
 187   0.0000       0.060389         1.6433 
 188   0.0000       0.062167         1.6916 
 189   0.0000       0.066079         1.7981 
 190   0.0000       0.067316         1.8318 
 191   0.0000       0.068440         1.8623 
 192   0.0000       0.070374         1.9150 
 193   0.0000       0.072488         1.9725 
 194   0.0000       0.075466         2.0535 
 195   0.0000       0.077938         2.1208 
 196   0.0000       0.078794         2.1441 
 197   0.0000       0.080824         2.1993 
 198   0.0000       0.082677         2.2498 
 199   0.0000       0.083642         2.2760 
 200   0.0000       0.084621         2.3027 
 201   0.0000       0.087573         2.3830 
 202   0.0000       0.089470         2.4346 
 203   0.0000       0.091002         2.4763 
 204   0.0000       0.091966         2.5025 
 205   0.0000       0.093034         2.5316 
 206   0.0000       0.093364         2.5406 
 207   0.0000       0.096277         2.6198 
 208   0.0000       0.097336         2.6486 
 209   0.0000       0.098950         2.6926 
 210   0.0000       0.100950         2.7470 
 211   0.0000       0.101615         2.7651 
 212   0.0000       0.105345         2.8666 
 213   0.0000       0.106577         2.9001 
 214   0.0000       0.107385         2.9221 
 215   0.0000       0.108903         2.9634 
 216   0.0000       0.111608         3.0370 
 217   0.0000       0.112226         3.0538 
 218   0.0000       0.113970         3.1013 
 219   0.0000       0.115806         3.1512 
 220   0.0000       0.116481         3.1696 
 221   0.0000       0.118629         3.2281 
 222   0.0000       0.121031         3.2934 
 223   0.0000       0.121205         3.2982 
 224   0.0000       0.122720         3.3394 
 225   0.0000       0.123885         3.3711 
 226   0.0000       0.124680         3.3927 
 227   0.0000       0.126823         3.4510 
 228   0.0000       0.127783         3.4771 
 229   0.0000       0.130347         3.5469 
 230   0.0000       0.132047         3.5932 
 231   0.0000       0.132173         3.5966 
 232   0.0000       0.133200         3.6246 
 233   0.0000       0.134987         3.6732 
 234   0.0000       0.136399         3.7116 
 235   0.0000       0.137932         3.7533 
 236   0.0000       0.139402         3.7933 
 237   0.0000       0.140703         3.8287 
 238   0.0000       0.142267         3.8713 
 239   0.0000       0.143231         3.8975 
 240   0.0000       0.144394         3.9292 
 241   0.0000       0.144630         3.9356 
 242   0.0000       0.145449         3.9579 
 243   0.0000       0.146542         3.9876 
 244   0.0000       0.147046         4.0013 
 245   0.0000       0.148164         4.0317 
 246   0.0000       0.148658         4.0452 
 247   0.0000       0.149458         4.0670 
 248   0.0000       0.151251         4.1158 
 249   0.0000       0.151508         4.1227 
 250   0.0000       0.153798         4.1850 
 251   0.0000       0.155485         4.2310 
 252   0.0000       0.155861         4.2412 
 253   0.0000       0.156773         4.2660 
 254   0.0000       0.158674         4.3177 
 255   0.0000       0.158975         4.3259 
 256   0.0000       0.160442         4.3659 
 257   0.0000       0.161737         4.4011 
 258   0.0000       0.163043         4.4366 
 259   0.0000       0.163682         4.4540 
 260   0.0000       0.164881         4.4866 
 261   0.0000       0.165587         4.5059 
 262   0.0000       0.166489         4.5304 
 263   0.0000       0.167906         4.5689 
 264   0.0000       0.168465         4.5842 
 265   0.0000       0.168767         4.5924 
 266   0.0000       0.170901         4.6505 
 267   0.0000       0.171562         4.6684 
 268   0.0000       0.173426         4.7192 
[...]
290:   3108.55   0.008321   42.05  0.000835  (-0.004545 -0.027768 -0.006601)
291:   3113.98   0.012699   64.17  0.001273  ( 0.000304 -0.035664  0.000752)
292:   3117.19   0.011860   59.94  0.001187  (-0.031037 -0.014953  0.000679)
293:   3124.42   0.004128   20.86  0.000412  ( 0.001269  0.014455  0.014205)
294:   3129.07   0.010653   53.84  0.001062  ( 0.030269 -0.011395 -0.004046)
295:   3135.70   0.012336   62.34  0.001228  (-0.013438 -0.014620 -0.028867)
296:   3137.68   0.010781   54.48  0.001072  ( 0.013587 -0.029579 -0.003571)
297:   3138.95   0.003665   18.52  0.000364  ( 0.015902  0.009017 -0.005497)
298:   3145.45   0.007008   35.41  0.000695  ( 0.006936  0.025217  0.003354)
299:   3149.35   0.004044   20.44  0.000401  (-0.004933 -0.007741 -0.017790)
300:   3149.99   0.004183   21.14  0.000414  (-0.008636  0.009252 -0.015945)
301:   3151.06   0.001741    8.80  0.000172  ( 0.004727  0.012044 -0.002238)
302:   3151.73   0.001952    9.86  0.000193  ( 0.007654 -0.010276 -0.005391)
303:   3208.28   0.006714   33.93  0.000653  (-0.001580  0.019982 -0.015851)
304:   3597.19   0.206174  1041.92  0.017886  (-0.084185  0.095685  0.040537)
305:   3604.03   0.205246  1037.23  0.017772  ( 0.039546  0.127202 -0.005240)

* The epsilon (eps) is given for a Dirac delta lineshape.
** The dipole moment derivative (T) already includes vibrational overlap.

The first frequency considered to be a vibration is 11
The total number of vibrations considered is 295


--------------------------
THERMOCHEMISTRY AT 298.15K
--------------------------

Temperature         ... 298.15 K
Pressure            ... 1.00 atm
Total Mass          ... 558.89 AMU

Throughout the following assumptions are being made:
  (1) The electronic state is orbitally nondegenerate
  (2) There are no thermally accessible electronically excited states
  (3) Hindered rotations indicated by low frequency modes are not
      treated as such but are treated as vibrations and this may
      cause some error
  (4) All equations used are the standard statistical mechanics
      equations for an ideal gas
  (5) All vibrations are strictly harmonic

freq.       2.60  E(vib)   ...       0.59 
freq.      10.12  E(vib)   ...       0.58 
freq.      15.53  E(vib)   ...       0.57 
freq.      26.91  E(vib)   ...       0.55 
freq.      34.19  E(vib)   ...       0.54 
freq.      37.19  E(vib)   ...       0.54 
freq.      41.23  E(vib)   ...       0.54 
freq.      48.58  E(vib)   ...       0.53 
freq.      54.19  E(vib)   ...       0.52 
freq.      62.37  E(vib)   ...       0.51 
freq.      63.81  E(vib)   ...       0.51 
freq.      72.61  E(vib)   ...       0.49 
freq.      77.90  E(vib)   ...       0.49 
freq.      86.93  E(vib)   ...       0.48 
freq.      97.23  E(vib)   ...       0.46 
freq.     101.57  E(vib)   ...       0.46 
freq.     112.52  E(vib)   ...       0.45 
freq.     127.69  E(vib)   ...       0.43 
freq.     127.77  E(vib)   ...       0.43 
freq.     129.91  E(vib)   ...       0.43 
freq.     134.48  E(vib)   ...       0.42 
freq.     163.73  E(vib)   ...       0.39 
freq.     172.80  E(vib)   ...       0.38 
freq.     177.55  E(vib)   ...       0.37 
freq.     179.38  E(vib)   ...       0.37 
freq.     186.86  E(vib)   ...       0.36 
freq.     199.48  E(vib)   ...       0.35 
freq.     209.80  E(vib)   ...       0.34 
freq.     236.36  E(vib)   ...       0.32 
freq.     240.08  E(vib)   ...       0.31 
freq.     247.43  E(vib)   ...       0.31 
freq.     256.73  E(vib)   ...       0.30 
freq.     262.53  E(vib)   ...       0.29 
freq.     263.59  E(vib)   ...       0.29 
freq.     269.37  E(vib)   ...       0.29 
freq.     277.46  E(vib)   ...       0.28 
freq.     288.43  E(vib)   ...       0.27 
freq.     294.82  E(vib)   ...       0.27 
freq.     298.62  E(vib)   ...       0.26 
freq.     299.52  E(vib)   ...       0.26 
freq.     311.99  E(vib)   ...       0.25 
freq.     318.24  E(vib)   ...       0.25 
freq.     320.73  E(vib)   ...       0.25 
freq.     331.76  E(vib)   ...       0.24 
freq.     346.58  E(vib)   ...       0.23 
freq.     354.91  E(vib)   ...       0.22 
freq.     368.14  E(vib)   ...       0.21 
freq.     372.39  E(vib)   ...       0.21 
freq.     376.64  E(vib)   ...       0.21 
freq.     391.29  E(vib)   ...       0.20 
freq.     391.38  E(vib)   ...       0.20 
freq.     392.80  E(vib)   ...       0.20 
freq.     400.16  E(vib)   ...       0.19 
freq.     406.24  E(vib)   ...       0.19 
freq.     438.71  E(vib)   ...       0.17 
freq.     444.36  E(vib)   ...       0.17 
freq.     452.37  E(vib)   ...       0.16 
freq.     457.02  E(vib)   ...       0.16 
freq.     465.54  E(vib)   ...       0.16 
freq.     480.50  E(vib)   ...       0.15 
freq.     481.78  E(vib)   ...       0.15 
freq.     496.15  E(vib)   ...       0.14 
freq.     497.27  E(vib)   ...       0.14 
freq.     512.01  E(vib)   ...       0.14 
freq.     518.95  E(vib)   ...       0.13 
freq.     531.07  E(vib)   ...       0.13 
freq.     537.29  E(vib)   ...       0.12 
freq.     540.30  E(vib)   ...       0.12 
freq.     547.00  E(vib)   ...       0.12 
freq.     552.37  E(vib)   ...       0.12 
freq.     554.70  E(vib)   ...       0.12 
freq.     581.84  E(vib)   ...       0.11 
freq.     601.72  E(vib)   ...       0.10 
freq.     603.90  E(vib)   ...       0.10 
freq.     611.00  E(vib)   ...       0.10 
freq.     615.43  E(vib)   ...       0.10 
freq.     641.83  E(vib)   ...       0.09 
freq.     661.99  E(vib)   ...       0.08 
freq.     680.52  E(vib)   ...       0.08 
freq.     707.69  E(vib)   ...       0.07 
freq.     728.43  E(vib)   ...       0.06 
freq.     734.62  E(vib)   ...       0.06 
freq.     746.40  E(vib)   ...       0.06 
freq.     749.79  E(vib)   ...       0.06 
freq.     774.71  E(vib)   ...       0.05 
freq.     782.64  E(vib)   ...       0.05 
freq.     804.93  E(vib)   ...       0.05 
freq.     805.15  E(vib)   ...       0.05 
freq.     806.48  E(vib)   ...       0.05 
freq.     826.80  E(vib)   ...       0.04 
freq.     845.81  E(vib)   ...       0.04 
freq.     859.30  E(vib)   ...       0.04 
freq.     863.83  E(vib)   ...       0.04 
freq.     879.46  E(vib)   ...       0.04 
freq.     883.02  E(vib)   ...       0.04 
freq.     883.57  E(vib)   ...       0.04 
freq.     884.88  E(vib)   ...       0.04 
freq.     896.72  E(vib)   ...       0.03 
freq.     902.11  E(vib)   ...       0.03 
freq.     902.66  E(vib)   ...       0.03 
freq.     903.16  E(vib)   ...       0.03 
freq.     908.24  E(vib)   ...       0.03 
freq.     915.56  E(vib)   ...       0.03 
freq.     919.19  E(vib)   ...       0.03 
freq.     927.26  E(vib)   ...       0.03 
freq.     931.38  E(vib)   ...       0.03 
freq.     935.59  E(vib)   ...       0.03 
freq.     938.90  E(vib)   ...       0.03 
freq.     953.74  E(vib)   ...       0.03 
freq.     958.90  E(vib)   ...       0.03 
freq.     964.03  E(vib)   ...       0.03 
freq.     973.93  E(vib)   ...       0.03 
freq.     981.02  E(vib)   ...       0.02 
freq.     986.39  E(vib)   ...       0.02 
freq.     995.17  E(vib)   ...       0.02 
freq.    1003.73  E(vib)   ...       0.02 
freq.    1005.39  E(vib)   ...       0.02 
freq.    1010.79  E(vib)   ...       0.02 
freq.    1018.42  E(vib)   ...       0.02 
freq.    1022.15  E(vib)   ...       0.02 
freq.    1028.75  E(vib)   ...       0.02 
freq.    1030.51  E(vib)   ...       0.02 
freq.    1034.46  E(vib)   ...       0.02 
freq.    1045.00  E(vib)   ...       0.02 
freq.    1050.82  E(vib)   ...       0.02 
freq.    1061.39  E(vib)   ...       0.02 
freq.    1068.37  E(vib)   ...       0.02 
freq.    1078.46  E(vib)   ...       0.02 
freq.    1082.10  E(vib)   ...       0.02 
freq.    1084.21  E(vib)   ...       0.02 
freq.    1084.61  E(vib)   ...       0.02 
freq.    1090.90  E(vib)   ...       0.02 
freq.    1098.14  E(vib)   ...       0.02 
freq.    1110.52  E(vib)   ...       0.02 
freq.    1113.38  E(vib)   ...       0.01 
freq.    1113.81  E(vib)   ...       0.01 
freq.    1115.03  E(vib)   ...       0.01 
freq.    1120.92  E(vib)   ...       0.01 
freq.    1129.66  E(vib)   ...       0.01 
freq.    1136.70  E(vib)   ...       0.01 
freq.    1145.98  E(vib)   ...       0.01 
freq.    1149.05  E(vib)   ...       0.01 
freq.    1153.00  E(vib)   ...       0.01 
freq.    1162.69  E(vib)   ...       0.01 
freq.    1168.20  E(vib)   ...       0.01 
freq.    1179.50  E(vib)   ...       0.01 
freq.    1196.10  E(vib)   ...       0.01 
freq.    1201.98  E(vib)   ...       0.01 
freq.    1208.61  E(vib)   ...       0.01 
freq.    1217.74  E(vib)   ...       0.01 
freq.    1218.01  E(vib)   ...       0.01 
freq.    1221.89  E(vib)   ...       0.01 
freq.    1229.11  E(vib)   ...       0.01 
freq.    1242.04  E(vib)   ...       0.01 
freq.    1250.17  E(vib)   ...       0.01 
freq.    1250.42  E(vib)   ...       0.01 
freq.    1253.68  E(vib)   ...       0.01 
freq.    1260.28  E(vib)   ...       0.01 
freq.    1266.20  E(vib)   ...       0.01 
freq.    1270.94  E(vib)   ...       0.01 
freq.    1274.89  E(vib)   ...       0.01 
freq.    1291.23  E(vib)   ...       0.01 
freq.    1295.95  E(vib)   ...       0.01 
freq.    1299.26  E(vib)   ...       0.01 
freq.    1309.09  E(vib)   ...       0.01 
freq.    1313.67  E(vib)   ...       0.01 
freq.    1318.87  E(vib)   ...       0.01 
freq.    1329.07  E(vib)   ...       0.01 
freq.    1331.08  E(vib)   ...       0.01 
freq.    1341.85  E(vib)   ...       0.01 
freq.    1344.14  E(vib)   ...       0.01 
freq.    1347.94  E(vib)   ...       0.01 
freq.    1351.06  E(vib)   ...       0.01 
freq.    1358.77  E(vib)   ...       0.01 
freq.    1365.97  E(vib)   ...       0.01 
freq.    1370.50  E(vib)   ...       0.01 
freq.    1371.78  E(vib)   ...       0.01 
freq.    1372.30  E(vib)   ...       0.01 
freq.    1372.44  E(vib)   ...       0.01 
freq.    1372.50  E(vib)   ...       0.01 
freq.    1374.05  E(vib)   ...       0.01 
freq.    1378.07  E(vib)   ...       0.01 
freq.    1380.18  E(vib)   ...       0.01 
freq.    1383.34  E(vib)   ...       0.00 
freq.    1383.93  E(vib)   ...       0.00 
freq.    1386.83  E(vib)   ...       0.00 
freq.    1388.93  E(vib)   ...       0.00 
freq.    1393.12  E(vib)   ...       0.00 
freq.    1396.55  E(vib)   ...       0.00 
freq.    1399.81  E(vib)   ...       0.00 
freq.    1403.95  E(vib)   ...       0.00 
freq.    1408.22  E(vib)   ...       0.00 
freq.    1411.43  E(vib)   ...       0.00 
freq.    1413.56  E(vib)   ...       0.00 
freq.    1418.89  E(vib)   ...       0.00 
freq.    1425.12  E(vib)   ...       0.00 
freq.    1426.75  E(vib)   ...       0.00 
freq.    1439.30  E(vib)   ...       0.00 
freq.    1439.61  E(vib)   ...       0.00 
freq.    1440.81  E(vib)   ...       0.00 
freq.    1441.00  E(vib)   ...       0.00 
freq.    1442.14  E(vib)   ...       0.00 
freq.    1445.29  E(vib)   ...       0.00 
freq.    1445.29  E(vib)   ...       0.00 
freq.    1454.47  E(vib)   ...       0.00 
freq.    1459.44  E(vib)   ...       0.00 
freq.    1460.23  E(vib)   ...       0.00 
freq.    1463.91  E(vib)   ...       0.00 
freq.    1472.81  E(vib)   ...       0.00 
freq.    1473.51  E(vib)   ...       0.00 
freq.    1474.53  E(vib)   ...       0.00 
freq.    1475.24  E(vib)   ...       0.00 
freq.    1477.11  E(vib)   ...       0.00 
freq.    1477.70  E(vib)   ...       0.00 
freq.    1480.33  E(vib)   ...       0.00 
freq.    1481.17  E(vib)   ...       0.00 
freq.    1484.54  E(vib)   ...       0.00 
freq.    1484.78  E(vib)   ...       0.00 
freq.    1487.65  E(vib)   ...       0.00 
freq.    1489.87  E(vib)   ...       0.00 
freq.    1490.40  E(vib)   ...       0.00 
freq.    1491.00  E(vib)   ...       0.00 
freq.    1493.75  E(vib)   ...       0.00 
freq.    1496.11  E(vib)   ...       0.00 
freq.    1500.59  E(vib)   ...       0.00 
freq.    1503.92  E(vib)   ...       0.00 
freq.    1506.21  E(vib)   ...       0.00 
freq.    1508.49  E(vib)   ...       0.00 
freq.    1510.19  E(vib)   ...       0.00 
freq.    1516.48  E(vib)   ...       0.00 
freq.    1680.09  E(vib)   ...       0.00 
freq.    1719.21  E(vib)   ...       0.00 
freq.    1719.94  E(vib)   ...       0.00 
freq.    2978.50  E(vib)   ...       0.00 
freq.    2990.19  E(vib)   ...       0.00 
freq.    3021.20  E(vib)   ...       0.00 
freq.    3021.41  E(vib)   ...       0.00 
freq.    3023.59  E(vib)   ...       0.00 
freq.    3025.03  E(vib)   ...       0.00 
freq.    3026.35  E(vib)   ...       0.00 
freq.    3027.29  E(vib)   ...       0.00 
freq.    3029.59  E(vib)   ...       0.00 
freq.    3032.05  E(vib)   ...       0.00 
freq.    3033.74  E(vib)   ...       0.00 
freq.    3035.54  E(vib)   ...       0.00 
freq.    3036.04  E(vib)   ...       0.00 
freq.    3037.39  E(vib)   ...       0.00 
freq.    3038.32  E(vib)   ...       0.00 
freq.    3040.07  E(vib)   ...       0.00 
freq.    3041.32  E(vib)   ...       0.00 
freq.    3041.52  E(vib)   ...       0.00 
freq.    3041.89  E(vib)   ...       0.00 
freq.    3042.13  E(vib)   ...       0.00 
freq.    3042.15  E(vib)   ...       0.00 
freq.    3045.91  E(vib)   ...       0.00 
freq.    3051.76  E(vib)   ...       0.00 
freq.    3052.44  E(vib)   ...       0.00 
freq.    3053.28  E(vib)   ...       0.00 
freq.    3055.68  E(vib)   ...       0.00 
freq.    3059.24  E(vib)   ...       0.00 
freq.    3060.52  E(vib)   ...       0.00 
freq.    3066.04  E(vib)   ...       0.00 
freq.    3070.19  E(vib)   ...       0.00 
freq.    3071.40  E(vib)   ...       0.00 
freq.    3074.19  E(vib)   ...       0.00 
freq.    3077.12  E(vib)   ...       0.00 
freq.    3079.76  E(vib)   ...       0.00 
freq.    3082.00  E(vib)   ...       0.00 
freq.    3082.52  E(vib)   ...       0.00 
freq.    3085.31  E(vib)   ...       0.00 
freq.    3092.67  E(vib)   ...       0.00 
freq.    3093.93  E(vib)   ...       0.00 
freq.    3095.37  E(vib)   ...       0.00 
freq.    3095.70  E(vib)   ...       0.00 
freq.    3095.83  E(vib)   ...       0.00 
freq.    3099.64  E(vib)   ...       0.00 
freq.    3101.33  E(vib)   ...       0.00 
freq.    3102.78  E(vib)   ...       0.00 
freq.    3103.23  E(vib)   ...       0.00 
freq.    3108.55  E(vib)   ...       0.00 
freq.    3113.98  E(vib)   ...       0.00 
freq.    3117.19  E(vib)   ...       0.00 
freq.    3124.42  E(vib)   ...       0.00 
freq.    3129.07  E(vib)   ...       0.00 
freq.    3135.70  E(vib)   ...       0.00 
freq.    3137.68  E(vib)   ...       0.00 
freq.    3138.95  E(vib)   ...       0.00 
freq.    3145.45  E(vib)   ...       0.00 
freq.    3149.35  E(vib)   ...       0.00 
freq.    3149.99  E(vib)   ...       0.00 
freq.    3151.06  E(vib)   ...       0.00 
freq.    3151.73  E(vib)   ...       0.00 
freq.    3208.28  E(vib)   ...       0.00 
freq.    3597.19  E(vib)   ...       0.00 
freq.    3604.03  E(vib)   ...       0.00 

------------
INNER ENERGY
------------

The inner energy is: U= E(el) + E(ZPE) + E(vib) + E(rot) + E(trans)
    E(el)   - is the total energy from the electronic structure calculation
              = E(kin-el) + E(nuc-el) + E(el-el) + E(nuc-nuc)
    E(ZPE)  - the the zero temperature vibrational energy from the frequency calculation
    E(vib)  - the the finite temperature correction to E(ZPE) due to population
              of excited vibrational states
    E(rot)  - is the rotational thermal energy
    E(trans)- is the translational thermal energy

Summary of contributions to the inner energy U:
Electronic energy                ...  -1709.08893034 Eh
Zero point energy                ...      0.91826545 Eh     576.22 kcal/mol
Thermal vibrational correction   ...      0.04003960 Eh      25.13 kcal/mol
Thermal rotational correction    ...      0.00141627 Eh       0.89 kcal/mol
Thermal translational correction ...      0.00141627 Eh       0.89 kcal/mol
-----------------------------------------------------------------------
Total thermal energy                  -1708.12779275 Eh


Summary of corrections to the electronic energy:
(perhaps to be used in another calculation)
Total thermal correction                  0.04287215 Eh      26.90 kcal/mol
Non-thermal (ZPE) correction              0.91826545 Eh     576.22 kcal/mol
-----------------------------------------------------------------------
Total correction                          0.96113759 Eh     603.12 kcal/mol


--------
ENTHALPY
--------

The enthalpy is H = U + kB*T
                kB is Boltzmann's constant
Total free energy                 ...  -1708.12779275 Eh 
Thermal Enthalpy correction       ...      0.00094421 Eh       0.59 kcal/mol
-----------------------------------------------------------------------
Total Enthalpy                    ...  -1708.12684854 Eh


Note: Only C1 symmetry has been detected, increase convergence thresholds 
      if your molecule has a higher symmetry. Symmetry factor of 1.0 is   
      used for the rotational entropy correction. 
 

Note: Rotational entropy computed according to Herzberg 
Infrared and Raman Spectra, Chapter V,1, Van Nostrand Reinhold, 1945 
Point Group:  C1, Symmetry Number:   1  
Rotational constants in cm-1:     0.004053     0.001323     0.001104 

Vibrational entropy computed according to the QRRHO of S. Grimme
Chem.Eur.J. 2012 18 9955


-------
ENTROPY
-------

The entropy contributions are T*S = T*(S(el)+S(vib)+S(rot)+S(trans))
     S(el)   - electronic entropy
     S(vib)  - vibrational entropy
     S(rot)  - rotational entropy
     S(trans)- translational entropy
The entropies will be listed as multiplied by the temperature to get
units of energy

Electronic entropy                ...      0.00000000 Eh      0.00 kcal/mol
Vibrational entropy               ...      0.07233340 Eh     45.39 kcal/mol
Rotational entropy                ...      0.01845448 Eh     11.58 kcal/mol
Translational entropy             ...      0.02130833 Eh     13.37 kcal/mol
-----------------------------------------------------------------------
Final entropy term                ...      0.11209621 Eh     70.34 kcal/mol

In case the symmetry of your molecule has not been determined correctly
or in case you have a reason to use a different symmetry number we print 
out the resulting rotational entropy values for sn=1,12 :
 --------------------------------------------------------
|  sn= 1 | S(rot)=       0.01845448 Eh     11.58 kcal/mol|
|  sn= 2 | S(rot)=       0.01780003 Eh     11.17 kcal/mol|
|  sn= 3 | S(rot)=       0.01741719 Eh     10.93 kcal/mol|
|  sn= 4 | S(rot)=       0.01714557 Eh     10.76 kcal/mol|
|  sn= 5 | S(rot)=       0.01693488 Eh     10.63 kcal/mol|
|  sn= 6 | S(rot)=       0.01676274 Eh     10.52 kcal/mol|
|  sn= 7 | S(rot)=       0.01661719 Eh     10.43 kcal/mol|
|  sn= 8 | S(rot)=       0.01649111 Eh     10.35 kcal/mol|
|  sn= 9 | S(rot)=       0.01637990 Eh     10.28 kcal/mol|
|  sn=10 | S(rot)=       0.01628042 Eh     10.22 kcal/mol|
|  sn=11 | S(rot)=       0.01619043 Eh     10.16 kcal/mol|
|  sn=12 | S(rot)=       0.01610828 Eh     10.11 kcal/mol|
 --------------------------------------------------------


-------------------
GIBBS FREE ENERGY
-------------------

The Gibbs free energy is G = H - T*S

Total enthalpy                    ...  -1708.12684854 Eh 
Total entropy correction          ...     -0.11209621 Eh    -70.34 kcal/mol
-----------------------------------------------------------------------
Final Gibbs free energy         ...  -1708.23894475 Eh

For completeness - the Gibbs free energy minus the electronic energy
G-E(el)                           ...      0.84998559 Eh    533.37 kcal/mol


Timings for individual modules:

Sum of individual times         ...    25611.655 sec (= 426.861 min)
GTO integral calculation        ...        1.788 sec (=   0.030 min)   0.0 %
SCF iterations                  ...      341.290 sec (=   5.688 min)   1.3 %
Analytical frequency calculation...    25268.577 sec (= 421.143 min)  98.7 %
                             ****ORCA TERMINATED NORMALLY****
TOTAL RUN TIME: 0 days 7 hours 6 minutes 53 seconds 306 msec
