
                                 *****************
                                 * O   R   C   A *
                                 *****************

                                            #,                                       
                                            ###                                      
                                            ####                                     
                                            #####                                    
                                            ######                                   
                                           ########,                                 
                                     ,,################,,,,,                         
                               ,,#################################,,                 
                          ,,##########################################,,             
                       ,#########################################, ''#####,          
                    ,#############################################,,   '####,        
                  ,##################################################,,,,####,       
                ,###########''''           ''''###############################       
              ,#####''   ,,,,##########,,,,          '''####'''          '####       
            ,##' ,,,,###########################,,,                        '##       
           ' ,,###''''                  '''############,,,                           
         ,,##''                                '''############,,,,        ,,,,,,###''
      ,#''                                            '''#######################'''  
     '                                                          ''''####''''         
             ,#######,   #######,   ,#######,      ##                                
            ,#'     '#,  ##    ##  ,#'     '#,    #''#        ######   ,####,        
            ##       ##  ##   ,#'  ##            #'  '#       #        #'  '#        
            ##       ##  #######   ##           ,######,      #####,   #    #        
            '#,     ,#'  ##    ##  '#,     ,#' ,#      #,         ##   #,  ,#        
             '#######'   ##     ##  '#######'  #'      '#     #####' # '####'        



                  #######################################################
                  #                        -***-                        #
                  #          Department of theory and spectroscopy      #
                  #    Directorship and core code : Frank Neese         #
                  #        Max Planck Institute fuer Kohlenforschung    #
                  #                Kaiser Wilhelm Platz 1               #
                  #                 D-45470 Muelheim/Ruhr               #
                  #                      Germany                        #
                  #                                                     #
                  #                  All rights reserved                #
                  #                        -***-                        #
                  #######################################################


                         Program Version 5.0.4 -  RELEASE  -


 With contributions from (in alphabetic order):
   Daniel Aravena         : Magnetic Suceptibility
   Michael Atanasov       : Ab Initio Ligand Field Theory (pilot matlab implementation)
   Alexander A. Auer      : GIAO ZORA, VPT2 properties, NMR spectrum
   Ute Becker             : Parallelization
   Giovanni Bistoni       : ED, misc. LED, open-shell LED, HFLD
   Martin Brehm           : Molecular dynamics
   Dmytro Bykov           : SCF Hessian
   Vijay G. Chilkuri      : MRCI spin determinant printing, contributions to CSF-ICE
   Dipayan Datta          : RHF DLPNO-CCSD density
   Achintya Kumar Dutta   : EOM-CC, STEOM-CC
   Dmitry Ganyushin       : Spin-Orbit,Spin-Spin,Magnetic field MRCI
   Miquel Garcia          : C-PCM and meta-GGA Hessian, CC/C-PCM, Gaussian charge scheme
   Yang Guo               : DLPNO-NEVPT2, F12-NEVPT2, CIM, IAO-localization
   Andreas Hansen         : Spin unrestricted coupled pair/coupled cluster methods
   Benjamin Helmich-Paris : MC-RPA, TRAH-SCF, COSX integrals
   Lee Huntington         : MR-EOM, pCC
   Robert Izsak           : Overlap fitted RIJCOSX, COSX-SCS-MP3, EOM
   Marcus Kettner         : VPT2
   Christian Kollmar      : KDIIS, OOCD, Brueckner-CCSD(T), CCSD density, CASPT2, CASPT2-K
   Simone Kossmann        : Meta GGA functionals, TD-DFT gradient, OOMP2, MP2 Hessian
   Martin Krupicka        : Initial AUTO-CI
   Lucas Lang             : DCDCAS
   Marvin Lechner         : AUTO-CI (C++ implementation), FIC-MRCC
   Dagmar Lenk            : GEPOL surface, SMD
   Dimitrios Liakos       : Extrapolation schemes; Compound Job, initial MDCI parallelization
   Dimitrios Manganas     : Further ROCIS development; embedding schemes
   Dimitrios Pantazis     : SARC Basis sets
   Anastasios Papadopoulos: AUTO-CI, single reference methods and gradients
   Taras Petrenko         : DFT Hessian,TD-DFT gradient, ASA, ECA, R-Raman, ABS, FL, XAS/XES, NRVS
   Peter Pinski           : DLPNO-MP2, DLPNO-MP2 Gradient
   Christoph Reimann      : Effective Core Potentials
   Marius Retegan         : Local ZFS, SOC
   Christoph Riplinger    : Optimizer, TS searches, QM/MM, DLPNO-CCSD(T), (RO)-DLPNO pert. Triples
   Tobias Risthaus        : Range-separated hybrids, TD-DFT gradient, RPA, STAB
   Michael Roemelt        : Original ROCIS implementation
   Masaaki Saitow         : Open-shell DLPNO-CCSD energy and density
   Barbara Sandhoefer     : DKH picture change effects
   Avijit Sen             : IP-ROCIS
   Kantharuban Sivalingam : CASSCF convergence, NEVPT2, FIC-MRCI
   Bernardo de Souza      : ESD, SOC TD-DFT
   Georgi Stoychev        : AutoAux, RI-MP2 NMR, DLPNO-MP2 response
   Willem Van den Heuvel  : Paramagnetic NMR
   Boris Wezisla          : Elementary symmetry handling
   Frank Wennmohs         : Technical directorship


 We gratefully acknowledge several colleagues who have allowed us to
 interface, adapt or use parts of their codes:
   Stefan Grimme, W. Hujo, H. Kruse, P. Pracht,  : VdW corrections, initial TS optimization,
                  C. Bannwarth, S. Ehlert          DFT functionals, gCP, sTDA/sTD-DF
   Ed Valeev, F. Pavosevic, A. Kumar             : LibInt (2-el integral package), F12 methods
   Garnet Chan, S. Sharma, J. Yang, R. Olivares  : DMRG
   Ulf Ekstrom                                   : XCFun DFT Library
   Mihaly Kallay                                 : mrcc  (arbitrary order and MRCC methods)
   Jiri Pittner, Ondrej Demel                    : Mk-CCSD
   Frank Weinhold                                : gennbo (NPA and NBO analysis)
   Christopher J. Cramer and Donald G. Truhlar   : smd solvation model
   Lars Goerigk                                  : TD-DFT with DH, B97 family of functionals
   V. Asgeirsson, H. Jonsson                     : NEB implementation
   FAccTs GmbH                                   : IRC, NEB, NEB-TS, DLPNO-Multilevel, CI-OPT
                                                   MM, QMMM, 2- and 3-layer-ONIOM, Crystal-QMMM,
                                                   LR-CPCM, SF, NACMEs, symmetry and pop. for TD-DFT,
                                                   nearIR, NL-DFT gradient (VV10), updates on ESD,
                                                   ML-optimized integration grids
   S Lehtola, MJT Oliveira, MAL Marques          : LibXC Library
   Liviu Ungur et al                             : ANISO software


 Your calculation uses the libint2 library for the computation of 2-el integrals
 For citations please refer to: http://libint.valeyev.net

 Your ORCA version has been built with support for libXC version: 5.1.0
 For citations please refer to: https://tddft.org/programs/libxc/

 This ORCA versions uses:
   CBLAS   interface :  Fast vector & matrix operations
   LAPACKE interface :  Fast linear algebra routines
   SCALAPACK package :  Parallel linear algebra routines
   Shared memory     :  Shared parallel matrices
   BLAS/LAPACK       :  OpenBLAS 0.3.15  USE64BITINT DYNAMIC_ARCH NO_AFFINITY Zen SINGLE_THREADED
        Core in use  :  Zen
   Copyright (c) 2011-2014, The OpenBLAS Project


Your calculation utilizes the atom-pairwise dispersion correction
based on tight binding partial charges (D4)
Cite in your paper:
E.Caldeweyher, C.Bannwarth, S.Grimme, J.Chem.Phys., (2017), 147, 034112.
E.Caldeweyher, S.Ehlert, A.Hansen, H.Neugebauer, S.Grimme, J.Chem.Phys., (2018), in progress.
   

================================================================================

----- Orbital basis set information -----
Your calculation utilizes the basis: def2-TZVPD
   F. Weigend and R. Ahlrichs, Phys. Chem. Chem. Phys. 7, 3297 (2005).
   D. Rappoport and F. Furche, J. Chem. Phys. 133 134105 (2010).

----- AuxJ basis set information -----
Your calculation utilizes the auxiliary basis: def2/J
   F. Weigend, Phys. Chem. Chem. Phys. 8, 1057 (2006).

================================================================================
                                        WARNINGS
                       Please study these warnings very carefully!
================================================================================


INFO   : the flag for use of the SHARK integral package has been found!

================================================================================
                                       INPUT FILE
================================================================================
NAME = cl_8w_freq.inp
|  1> # avogadro generated ORCA file
|  2> # H16O8Cl | Frequencies | wB97X-D3/def2-TZVP
|  3> # 
|  4> #! Opt Freq wB97X-D3 def2-TZVP CPCM(Water)
|  5> ! wB97X-D3BJ def2-TZVPD def2/J RIJCOSX D4 TightSCF CPCM(Water) FREQ
|  6> 
|  7> %maxcore 1536
|  8> 
|  9> %pal
| 10>    nprocs 16
| 11> end
| 12> 
| 13> * xyz -1 1
| 14>    Cl     1.133284   -0.232509   -0.847042
| 15>    O     -1.369555    1.481489    0.416773
| 16>    H     -0.589077    1.042363    0.032327
| 17>    H     -1.880430    0.742941    0.805908
| 18>    O      2.090322    2.810631    0.065583
| 19>    H      1.893585    1.941595   -0.317333
| 20>    H      1.586981    2.808843    0.899324
| 21>    O     -2.519648    1.243048   -2.252149
| 22>    H     -2.269729    1.501740   -1.347813
| 23>    H     -1.697347    1.364881   -2.763779
| 24>    O     -2.747936   -0.877709    1.130036
| 25>    H     -2.277537   -1.403428    1.787299
| 26>    H     -2.464939   -1.231825    0.260917
| 27>    O      0.076395    1.381758   -3.418937
| 28>    H      0.492363    0.867139   -2.702986
| 29>    H      0.190771    0.844677   -4.211764
| 30>    O      1.324471   -0.261925    2.385545
| 31>    H      2.221396   -0.482037    2.662855
| 32>    H      1.334864   -0.332540    1.413820
| 33>    O      0.443063    2.457368    2.423669
| 34>    H      0.810281    1.568205    2.583359
| 35>    H     -0.323931    2.275193    1.851768
| 36>    O     -1.849474   -1.435676   -1.471546
| 37>    H     -0.906728   -1.240249   -1.331968
| 38>    H     -2.195991   -0.605207   -1.851210
| 39> *
| 40> 
| 41> 
| 42> 
| 43>                          ****END OF INPUT****
================================================================================

                       ****************************
                       * Single Point Calculation *
                       ****************************

---------------------------------
CARTESIAN COORDINATES (ANGSTROEM)
---------------------------------
  Cl     1.133284   -0.232509   -0.847042
  O     -1.369555    1.481489    0.416773
  H     -0.589077    1.042363    0.032327
  H     -1.880430    0.742941    0.805908
  O      2.090322    2.810631    0.065583
  H      1.893585    1.941595   -0.317333
  H      1.586981    2.808843    0.899324
  O     -2.519648    1.243048   -2.252149
  H     -2.269729    1.501740   -1.347813
  H     -1.697347    1.364881   -2.763779
  O     -2.747936   -0.877709    1.130036
  H     -2.277537   -1.403428    1.787299
  H     -2.464939   -1.231825    0.260917
  O      0.076395    1.381758   -3.418937
  H      0.492363    0.867139   -2.702986
  H      0.190771    0.844677   -4.211764
  O      1.324471   -0.261925    2.385545
  H      2.221396   -0.482037    2.662855
  H      1.334864   -0.332540    1.413820
  O      0.443063    2.457368    2.423669
  H      0.810281    1.568205    2.583359
  H     -0.323931    2.275193    1.851768
  O     -1.849474   -1.435676   -1.471546
  H     -0.906728   -1.240249   -1.331968
  H     -2.195991   -0.605207   -1.851210

----------------------------
CARTESIAN COORDINATES (A.U.)
----------------------------
  NO LB      ZA    FRAG     MASS         X           Y           Z
   0 Cl   17.0000    0    35.453    2.141596   -0.439378   -1.600677
   1 O     8.0000    0    15.999   -2.588084    2.799608    0.787587
   2 H     1.0000    0     1.008   -1.113194    1.969781    0.061089
   3 H     1.0000    0     1.008   -3.553498    1.403955    1.522945
   4 O     8.0000    0    15.999    3.950136    5.311323    0.123934
   5 H     1.0000    0     1.008    3.578357    3.669083   -0.599672
   6 H     1.0000    0     1.008    2.998959    5.307944    1.699476
   7 O     8.0000    0    15.999   -4.761445    2.349020   -4.255945
   8 H     1.0000    0     1.008   -4.289166    2.837877   -2.546997
   9 H     1.0000    0     1.008   -3.207521    2.579251   -5.222785
  10 O     8.0000    0    15.999   -5.192846   -1.658630    2.135459
  11 H     1.0000    0     1.008   -4.303921   -2.652095    3.377506
  12 H     1.0000    0     1.008   -4.658060   -2.327812    0.493062
  13 O     8.0000    0    15.999    0.144366    2.611144   -6.460855
  14 H     1.0000    0     1.008    0.930431    1.638655   -5.107903
  15 H     1.0000    0     1.008    0.360505    1.596208   -7.959081
  16 O     8.0000    0    15.999    2.502887   -0.494967    4.508027
  17 H     1.0000    0     1.008    4.197830   -0.910918    5.032067
  18 H     1.0000    0     1.008    2.522527   -0.628410    2.671733
  19 O     8.0000    0    15.999    0.837268    4.643753    4.580071
  20 H     1.0000    0     1.008    1.531209    2.963478    4.881841
  21 H     1.0000    0     1.008   -0.612141    4.299492    3.499334
  22 O     8.0000    0    15.999   -3.494999   -2.713034   -2.780819
  23 H     1.0000    0     1.008   -1.713468   -2.343731   -2.517055
  24 H     1.0000    0     1.008   -4.149822   -1.143675   -3.498280

--------------------------------
INTERNAL COORDINATES (ANGSTROEM)
--------------------------------
 Cl     0   0   0     0.000000000000     0.00000000     0.00000000
 O      1   0   0     3.286216754590     0.00000000     0.00000000
 H      2   1   0     0.974564661413     4.68272541     0.00000000
 H      2   1   3     0.978709590304    99.02579478   193.17852620
 O      3   2   4     3.210460509422   114.58941615   212.01791315
 H      5   3   2     0.969821467859    48.16884332   185.36223078
 H      5   3   2     0.973899078091    64.94538336    45.77307952
 O      2   1   3     2.915941127872    84.59142009    98.42116371
 H      8   2   1     0.973244398042    13.22007271   203.58720111
 H      8   2   1     0.976108329741    97.89030728   320.88804785
 O      4   2   1     1.866582985811   165.20126139   316.76293918
 H     11   4   2     0.964183767407   111.40993511   108.35750372
 H     11   4   2     0.980231237834    91.46225896     1.11336465
 O     10   8   2     1.890946197187   166.63830486    35.16206998
 H     14  10   8     0.974909188892    98.11011262     2.14099024
 H     14  10   8     0.964423414205   113.02288423   112.32123166
 O      1   2   3     3.238369417252    70.47660672    96.96142393
 H     17   1   2     0.964274122990   110.12434843   199.94905160
 H     17   1   2     0.974342839199     6.15025269   164.28848192
 O      7   5   3     1.937965620277   168.17339642    23.79801685
 H     20   7   5     0.975172187971    94.12293309    52.96277000
 H     20   7   5     0.973929299519    92.11430490   309.92749761
 O     13  11   4     1.849805514857   165.07656502   343.03545533
 H     23  13  11     0.972853406701    99.55028137    71.56083558
 H     23  13  11     0.976676785915    98.76146340   326.45162040

---------------------------
INTERNAL COORDINATES (A.U.)
---------------------------
 Cl     0   0   0     0.000000000000     0.00000000     0.00000000
 O      1   0   0     6.210049682879     0.00000000     0.00000000
 H      2   1   0     1.841660309869     4.68272541     0.00000000
 H      2   1   3     1.849493090318    99.02579478   193.17852620
 O      3   2   4     6.066891126578   114.58941615   212.01791315
 H      5   3   2     1.832696973052    48.16884332   185.36223078
 H      5   3   2     1.840402539670    64.94538336    45.77307952
 O      2   1   3     5.510330154315    84.59142009    98.42116371
 H      8   2   1     1.839165373673    13.22007271   203.58720111
 H      8   2   1     1.844577420250    97.89030728   320.88804785
 O      4   2   1     3.527330649420   165.20126139   316.76293918
 H     11   4   2     1.822043263172   111.40993511   108.35750372
 H     11   4   2     1.852368587421    91.46225896     1.11336465
 O     10   8   2     3.573370446664   166.63830486    35.16206998
 H     14  10   8     1.842311372449    98.11011262     2.14099024
 H     14  10   8     1.822496129988   113.02288423   112.32123166
 O      1   2   3     6.119631319073    70.47660672    96.96142393
 H     17   1   2     1.822214010479   110.12434843   199.94905160
 H     17   1   2     1.841241126634     6.15025269   164.28848192
 O      7   5   3     3.662224279278   168.17339642    23.79801685
 H     20   7   5     1.842808368683    94.12293309    52.96277000
 H     20   7   5     1.840459649893    92.11430490   309.92749761
 O     13  11   4     3.495625824097   165.07656502   343.03545533
 H     23  13  11     1.838426507116    99.55028137    71.56083558
 H     23  13  11     1.845651646739    98.76146340   326.45162040

---------------------
BASIS SET INFORMATION
---------------------
There are 3 groups of distinct atoms

 Group   1 Type Cl  : 15s10p4d1f contracted to 6s6p3d1f pattern {732111/511111/211/1}
 Group   2 Type O   : 12s7p3d1f contracted to 6s4p3d1f pattern {621111/4111/111/1}
 Group   3 Type H   : 5s2p contracted to 3s2p pattern {311/11}

Atom   0Cl   basis set group =>   1
Atom   1O    basis set group =>   2
Atom   2H    basis set group =>   3
Atom   3H    basis set group =>   3
Atom   4O    basis set group =>   2
Atom   5H    basis set group =>   3
Atom   6H    basis set group =>   3
Atom   7O    basis set group =>   2
Atom   8H    basis set group =>   3
Atom   9H    basis set group =>   3
Atom  10O    basis set group =>   2
Atom  11H    basis set group =>   3
Atom  12H    basis set group =>   3
Atom  13O    basis set group =>   2
Atom  14H    basis set group =>   3
Atom  15H    basis set group =>   3
Atom  16O    basis set group =>   2
Atom  17H    basis set group =>   3
Atom  18H    basis set group =>   3
Atom  19O    basis set group =>   2
Atom  20H    basis set group =>   3
Atom  21H    basis set group =>   3
Atom  22O    basis set group =>   2
Atom  23H    basis set group =>   3
Atom  24H    basis set group =>   3
---------------------------------
AUXILIARY/J BASIS SET INFORMATION
---------------------------------
There are 3 groups of distinct atoms

 Group   1 Type Cl  : 14s5p5d2f1g contracted to 8s4p3d1f1g pattern {71111111/2111/311/2/1}
 Group   2 Type O   : 12s5p4d2f1g contracted to 6s4p3d1f1g pattern {711111/2111/211/2/1}
 Group   3 Type H   : 5s2p1d contracted to 3s1p1d pattern {311/2/1}

Atom   0Cl   basis set group =>   1
Atom   1O    basis set group =>   2
Atom   2H    basis set group =>   3
Atom   3H    basis set group =>   3
Atom   4O    basis set group =>   2
Atom   5H    basis set group =>   3
Atom   6H    basis set group =>   3
Atom   7O    basis set group =>   2
Atom   8H    basis set group =>   3
Atom   9H    basis set group =>   3
Atom  10O    basis set group =>   2
Atom  11H    basis set group =>   3
Atom  12H    basis set group =>   3
Atom  13O    basis set group =>   2
Atom  14H    basis set group =>   3
Atom  15H    basis set group =>   3
Atom  16O    basis set group =>   2
Atom  17H    basis set group =>   3
Atom  18H    basis set group =>   3
Atom  19O    basis set group =>   2
Atom  20H    basis set group =>   3
Atom  21H    basis set group =>   3
Atom  22O    basis set group =>   2
Atom  23H    basis set group =>   3
Atom  24H    basis set group =>   3


           ************************************************************
           *        Program running with 16 parallel MPI-processes    *
           *              working on a common directory               *
           ************************************************************
------------------------------------------------------------------------------
                           ORCA GTO INTEGRAL CALCULATION
                           -- RI-GTO INTEGRALS CHOSEN --
------------------------------------------------------------------------------
------------------------------------------------------------------------------
                   ___                                                        
                  /   \      - P O W E R E D   B Y -                         
                 /     \                                                     
                 |  |  |   _    _      __       _____    __    __             
                 |  |  |  | |  | |    /  \     |  _  \  |  |  /  |          
                  \  \/   | |  | |   /    \    | | | |  |  | /  /          
                 / \  \   | |__| |  /  /\  \   | |_| |  |  |/  /          
                |  |  |   |  __  | /  /__\  \  |    /   |      \           
                |  |  |   | |  | | |   __   |  |    \   |  |\   \          
                \     /   | |  | | |  |  |  |  | |\  \  |  | \   \       
                 \___/    |_|  |_| |__|  |__|  |_| \__\ |__|  \__/        
                                                                              
                      - O R C A' S   B I G   F R I E N D -                    
                                      &                                       
                       - I N T E G R A L  F E E D E R -                       
                                                                              
 v1 FN, 2020, v2 2021                                                         
------------------------------------------------------------------------------


Reading SHARK input file cl_8w_freq.SHARKINP.tmp ... ok
----------------------
SHARK INTEGRAL PACKAGE
----------------------

Number of atoms                             ...     25
Number of basis functions                   ...    510
Number of shells                            ...    208
Maximum angular momentum                    ...      3
Integral batch strategy                     ... SHARK/LIBINT Hybrid
RI-J (if used) integral strategy            ... SPLIT-RIJ (Revised 2003 algorithm where possible)
Printlevel                                  ...      1
Contraction scheme used                     ... SEGMENTED contraction
Coulomb Range Separation                    ... NOT USED
Exchange Range Separation                   ... Long Range
   Mu parameter                             ...  0.300000
   Scaling (regular/separated)              ...  0.167000  0.833000
Finite Nucleus Model                        ... NOT USED
Auxiliary Coulomb fitting basis             ... AVAILABLE
   # of basis functions in Aux-J            ...    619
   # of shells in Aux-J                     ...    217
   Maximum angular momentum in Aux-J        ...      4
Auxiliary J/K fitting basis                 ... NOT available
Auxiliary Correlation fitting basis         ... NOT available
Auxiliary 'external' fitting basis          ... NOT available
Integral threshold                          ...     2.500000e-11
Primitive cut-off                           ...     2.500000e-12
Primitive pair pre-selection threshold      ...     2.500000e-12

Calculating pre-screening integrals         ... done (  0.0 sec) Dimension = 208
Organizing shell pair data                  ... done (  0.1 sec)
Shell pair information
Total number of shell pairs                 ...     21736
Shell pairs after pre-screening             ...     18257
Total number of primitive shell pairs       ...     53561
Primitive shell pairs kept                  ...     33422
          la=0 lb=0:   4243 shell pairs
          la=1 lb=0:   6181 shell pairs
          la=1 lb=1:   2260 shell pairs
          la=2 lb=0:   2249 shell pairs
          la=2 lb=1:   1668 shell pairs
          la=2 lb=2:    315 shell pairs
          la=3 lb=0:    639 shell pairs
          la=3 lb=1:    499 shell pairs
          la=3 lb=2:    176 shell pairs
          la=3 lb=3:     27 shell pairs

Calculating one electron integrals          ... done (  0.0 sec)
Calculating RI/J V-Matrix + Cholesky decomp.... done (  0.0 sec)
Calculating Nuclear repulsion               ... done (  0.0 sec) ENN=    656.723221937794 Eh

SHARK setup successfully completed in   0.5 seconds

Maximum memory used throughout the entire GTOINT-calculation: 30.6 MB


           ************************************************************
           *        Program running with 16 parallel MPI-processes    *
           *              working on a common directory               *
           ************************************************************
-------------------------------------------------------------------------------
                                 ORCA SCF
-------------------------------------------------------------------------------

------------
SCF SETTINGS
------------
Hamiltonian:
 Density Functional     Method          .... DFT(GTOs)
 Exchange Functional    Exchange        .... WB97X-V
 Correlation Functional Correlation     .... WB97X-V
 Gradients option       PostSCFGGA      .... off
 Hybrid DFT is turned on
   Fraction HF Exchange ScalHFX         ....  0.167000
   Scaling of DF-GGA-X  ScalDFX         ....  0.000000
   Scaling of DF-GGA-C  ScalDFC         ....  1.000000
   Scaling of DF-LDA-C  ScalLDAC        ....  1.000000
   Perturbative correction              ....  0.000000
   Density functional embedding theory  .... OFF
 Long-range corrected/Screened/Range-Separated Hybrid DFT is turned on
   Amount of maximum screened exact exchange              ....  0.833000
   Range separation parameter mu (erf(mu*r12)/r12)        ....  0.300000
 RI-approximation to the Coulomb term is turned on
   Number of AuxJ basis functions       .... 619
   RIJ-COSX (HFX calculated with COS-X)).... on


General Settings:
 Integral files         IntName         .... cl_8w_freq
 Hartree-Fock type      HFTyp           .... RHF
 Total Charge           Charge          ....   -1
 Multiplicity           Mult            ....    1
 Number of Electrons    NEL             ....   98
 Basis Dimension        Dim             ....  510
 Nuclear Repulsion      ENuc            ....    656.7232219378 Eh

Convergence Acceleration:
 DIIS                   CNVDIIS         .... on
   Start iteration      DIISMaxIt       ....    12
   Startup error        DIISStart       ....  0.200000
   # of expansion vecs  DIISMaxEq       ....     5
   Bias factor          DIISBfac        ....   1.050
   Max. coefficient     DIISMaxC        ....  10.000
 Trust-Rad. Augm. Hess. CNVTRAH         .... auto
   Auto Start mean grad. ratio tolernc. ....  1.125000
   Auto Start start iteration           ....    20
   Auto Start num. interpolation iter.  ....    10
   Max. Number of Micro iterations      ....    16
   Max. Number of Macro iterations      .... Maxiter - #DIIS iter
   Number of Davidson start vectors     ....     2
   Converg. threshold I  (grad. norm)   ....   1.000e-05
   Converg. threshold II (energy diff.) ....   1.000e-08
   Grad. Scal. Fac. for Micro threshold ....   0.100
   Minimum threshold for Micro iter.    ....   0.010
   NR start threshold (gradient norm)   ....   0.001
   Initial trust radius                 ....   0.400
   Minimum AH scaling param. (alpha)    ....   1.000
   Maximum AH scaling param. (alpha)    .... 1000.000
   Orbital update algorithm             .... Taylor
   White noise on init. David. guess    .... on
   Maximum white noise                  ....   0.010
   Quad. conv. algorithm                .... NR
 SOSCF                  CNVSOSCF        .... on
   Start iteration      SOSCFMaxIt      ....   150
   Startup grad/error   SOSCFStart      ....  0.003300
 Level Shifting         CNVShift        .... on
   Level shift para.    LevelShift      ....    0.2500
   Turn off err/grad.   ShiftErr        ....    0.0010
 Zerner damping         CNVZerner       .... off
 Static damping         CNVDamp         .... on
   Fraction old density DampFac         ....    0.7000
   Max. Damping (<1)    DampMax         ....    0.9800
   Min. Damping (>=0)   DampMin         ....    0.0000
   Turn off err/grad.   DampErr         ....    0.1000
 Fernandez-Rico         CNVRico         .... off

SCF Procedure:
 Maximum # iterations   MaxIter         ....   125
 SCF integral mode      SCFMode         .... Direct
   Integral package                     .... SHARK and LIBINT hybrid scheme
 Reset frequency        DirectResetFreq ....    20
 Integral Threshold     Thresh          ....  2.500e-11 Eh
 Primitive CutOff       TCut            ....  2.500e-12 Eh

Convergence Tolerance:
 Convergence Check Mode ConvCheckMode   .... Total+1el-Energy
 Convergence forced     ConvForced      .... 0
 Energy Change          TolE            ....  1.000e-08 Eh
 1-El. energy change                    ....  1.000e-05 Eh
 Orbital Gradient       TolG            ....  1.000e-05
 Orbital Rotation angle TolX            ....  1.000e-05
 DIIS Error             TolErr          ....  5.000e-07


Diagonalization of the overlap matrix:
Smallest eigenvalue                        ... 7.627e-05
Time for diagonalization                   ...    0.036 sec
Threshold for overlap eigenvalues          ... 1.000e-08
Number of eigenvalues below threshold      ... 0
Time for construction of square roots      ...    0.066 sec
Total time needed                          ...    0.109 sec

Time for model grid setup =    0.206 sec

------------------------------
INITIAL GUESS: MODEL POTENTIAL
------------------------------
Loading Hartree-Fock densities                     ... done
Calculating cut-offs                               ... done
Initializing the effective Hamiltonian             ... done
Setting up the integral package (SHARK)            ... done
Starting the Coulomb interaction                   ... done (   0.1 sec)
Reading the grid                                   ... done
Mapping shells                                     ... done
Starting the XC term evaluation                    ... done (   0.1 sec)
  promolecular density results
     # of electrons  =     96.986863817
     EX              =    -68.207937880
     EC              =     -4.226649305
     EX+EC           =    -72.434587185
Transforming the Hamiltonian                       ... done (   0.0 sec)
Diagonalizing the Hamiltonian                      ... done (   0.0 sec)
Back transforming the eigenvectors                 ... done (   0.0 sec)
Now organizing SCF variables                       ... done
                      ------------------
                      INITIAL GUESS DONE (   0.5 sec)
                      ------------------
-------------------
DFT GRID GENERATION
-------------------

General Integration Accuracy     IntAcc      ... 4.388
Radial Grid Type                 RadialGrid  ... OptM3 with GC (2021)
Angular Grid (max. ang.)         AngularGrid ... 4 (Lebedev-302)
Angular grid pruning method      GridPruning ... 4 (adaptive)
Weight generation scheme         WeightScheme... Becke
Basis function cutoff            BFCut       ... 1.0000e-11
Integration weight cutoff        WCut        ... 1.0000e-14
Angular grids for H and He will be reduced by one unit
Partially contracted basis set               ... off
Rotationally invariant grid construction     ... off

Total number of grid points                  ...   113230
Total number of batches                      ...     1782
Average number of points per batch           ...       63
Average number of grid points per atom       ...     4529
Time for grid setup =    0.718 sec

--------------------
COSX GRID GENERATION
--------------------

GRIDX 1
-------
General Integration Accuracy     IntAcc      ... 3.816
Radial Grid Type                 RadialGrid  ... OptM3 with GC (2021)
Angular Grid (max. ang.)         AngularGrid ... 1 (Lebedev-50)
Angular grid pruning method      GridPruning ... 4 (adaptive)
Weight generation scheme         WeightScheme... Becke
Basis function cutoff            BFCut       ... 1.0000e-11
Integration weight cutoff        WCut        ... 1.0000e-14
Angular grids for H and He will be reduced by one unit
Partially contracted basis set               ... on
Rotationally invariant grid construction     ... off

Total number of grid points                  ...    14063
Total number of batches                      ...      232
Average number of points per batch           ...       60
Average number of grid points per atom       ...      563
UseSFitting                                  ... on

GRIDX 2
-------
General Integration Accuracy     IntAcc      ... 4.020
Radial Grid Type                 RadialGrid  ... OptM3 with GC (2021)
Angular Grid (max. ang.)         AngularGrid ... 2 (Lebedev-110)
Angular grid pruning method      GridPruning ... 4 (adaptive)
Weight generation scheme         WeightScheme... Becke
Basis function cutoff            BFCut       ... 1.0000e-11
Integration weight cutoff        WCut        ... 1.0000e-14
Angular grids for H and He will be reduced by one unit
Partially contracted basis set               ... on
Rotationally invariant grid construction     ... off

Total number of grid points                  ...    32645
Total number of batches                      ...      521
Average number of points per batch           ...       62
Average number of grid points per atom       ...     1306
UseSFitting                                  ... on

GRIDX 3
-------
General Integration Accuracy     IntAcc      ... 4.338
Radial Grid Type                 RadialGrid  ... OptM3 with GC (2021)
Angular Grid (max. ang.)         AngularGrid ... 3 (Lebedev-194)
Angular grid pruning method      GridPruning ... 4 (adaptive)
Weight generation scheme         WeightScheme... Becke
Basis function cutoff            BFCut       ... 1.0000e-11
Integration weight cutoff        WCut        ... 1.0000e-14
Angular grids for H and He will be reduced by one unit
Partially contracted basis set               ... on
Rotationally invariant grid construction     ... off

Total number of grid points                  ...    73447
Total number of batches                      ...     1160
Average number of points per batch           ...       63
Average number of grid points per atom       ...     2938
UseSFitting                                  ... on

Time for X-Grid setup             =    1.017 sec


--------------------
CPCM SOLVATION MODEL
--------------------
CPCM parameters:
  Epsilon                                         ...      80.4000
  Refrac                                          ...       1.3300
  Rsolv                                           ...       1.3000
  Surface type                                    ... GAUSSIAN VDW
  Epsilon function type                           ...         CPCM
Radii:
 Radius for Cl used is    3.9684 Bohr (=   2.1000 Ang.)
 Radius for O  used is    3.4469 Bohr (=   1.8240 Ang.)
 Radius for H  used is    2.4944 Bohr (=   1.3200 Ang.)
Calculating surface                               ...        done! (  0.0s)
GEPOL surface points                              ...         1588
GEPOL Volume                                      ...    1541.9104
GEPOL Surface-area                                ...     961.8521
Calculating surface distance matrix               ...        done! (  0.1s)
Performing Cholesky decomposition & store         ...        done! (  0.2s)
Overall time for CPCM initialization              ...                 0.3s
--------------
SCF ITERATIONS
--------------
ITER       Energy         Delta-E        Max-DP      RMS-DP      [F,P]     Damp
               ***  Starting incremental Fock matrix formation  ***
  0  -1072.2525713216   0.000000000000 0.04717185  0.00036432  0.3375514 0.7000
  1  -1072.2827034518  -0.030132130177 0.02570161  0.00027031  0.2341138 0.7000
                               ***Turning on DIIS***
  2  -1072.3016823729  -0.018978921176 0.01137727  0.00018808  0.1627889 0.7000
  3  -1072.3142832016  -0.012600828690 0.00940623  0.00014441  0.1128099 0.7000
  4  -1072.3230834837  -0.008800282076 0.02892877  0.00038047  0.0782518 0.0000
                      *** Initiating the SOSCF procedure ***
                           *** Shutting down DIIS ***
                      *** Re-Reading the Fockian *** 
                      *** Removing any level shift *** 
ITER      Energy       Delta-E        Grad      Rot      Max-DP    RMS-DP
  5  -1072.34443263  -0.0213491424  0.001125  0.001125  0.004906  0.000046
               *** Restarting incremental Fock matrix formation ***
  6  -1072.34454057  -0.0001079395  0.000411  0.000793  0.002187  0.000029
  7  -1072.34456267  -0.0000221049  0.000198  0.000553  0.000909  0.000017
  8  -1072.34456521  -0.0000025368  0.000179  0.000158  0.000321  0.000006
  9  -1072.34456641  -0.0000012039  0.000057  0.000034  0.000097  0.000001
 10  -1072.34456641  -0.0000000038  0.000025  0.000011  0.000051  0.000000
 11  -1072.34456643  -0.0000000194  0.000008  0.000007  0.000016  0.000000
 12  -1072.34456645  -0.0000000201  0.000004  0.000002  0.000010  0.000000
                  ***Gradient check signals convergence***
              ***Rediagonalizing the Fockian in SOSCF/NRSCF***

               *****************************************************
               *                     SUCCESS                       *
               *           SCF CONVERGED AFTER  13 CYCLES          *
               *****************************************************

Old exchange energy                            =    -29.525644442 Eh
New exchange energy                            =    -29.525623077 Eh
Exchange energy change after final integration =      0.000021365 Eh
Total energy after final integration           =  -1072.344545082 Eh
Final COS-X integration done in                =     6.393 sec

----------------
TOTAL SCF ENERGY
----------------

Total Energy       :        -1072.34454508 Eh          -29179.97855 eV

Components:
Nuclear Repulsion  :          656.72322194 Eh           17870.34738 eV
Electronic Energy  :        -1729.06776702 Eh          -47050.32593 eV
One Electron Energy:        -2799.81949875 Eh          -76186.96183 eV
Two Electron Energy:         1070.75173173 Eh           29136.63590 eV
Max COSX asymmetry :            0.00000136 Eh               0.00004 eV
CPCM Dielectric    :           -0.09498279 Eh              -2.58461 eV

Virial components:
Potential Energy   :        -2141.29452836 Eh          -58267.58638 eV
Kinetic Energy     :         1068.94998328 Eh           29087.60783 eV
Virial Ratio       :            2.00317560


DFT components:
N(Alpha)           :       49.000326401631 electrons
N(Beta)            :       49.000326401631 electrons
N(Total)           :       98.000652803262 electrons
E(X)               :      -69.496930420333 Eh       
E(C)               :       -4.310023555580 Eh       
E(XC)              :      -73.806953975912 Eh       
DFET-embed. en.    :        0.000000000000 Eh       
CPCM Solvation Model Properties:
Surface-charge          :            0.96725748
Charge-correction       :           -0.00355823 Eh              -0.09682 eV
Free-energy (cav+disp)  :  This term is not implemented in the current solvation scheme

---------------
SCF CONVERGENCE
---------------

  Last Energy change         ...    7.3223e-09  Tolerance :   1.0000e-08
  Last MAX-Density change    ...    3.9968e-15  Tolerance :   1.0000e-07
  Last RMS-Density change    ...    1.7310e-17  Tolerance :   5.0000e-09
  Last Orbital Gradient      ...    8.9042e-07  Tolerance :   1.0000e-05
  Last Orbital Rotation      ...    4.1079e-07  Tolerance :   1.0000e-05

             **** THE GBW FILE WAS UPDATED (cl_8w_freq.gbw) ****
             **** DENSITY cl_8w_freq.scfp WAS UPDATED ****
             **** ENERGY FILE WAS UPDATED (cl_8w_freq.en.tmp) ****
             **** THE GBW FILE WAS UPDATED (cl_8w_freq.gbw) ****
             **** DENSITY cl_8w_freq.scfp WAS UPDATED ****
----------------
ORBITAL ENERGIES
----------------

  NO   OCC          E(Eh)            E(eV) 
   0   2.0000    -101.442433     -2760.3889 
   1   2.0000     -19.218657      -522.9663 
   2   2.0000     -19.218596      -522.9646 
   3   2.0000     -19.215159      -522.8711 
   4   2.0000     -19.213815      -522.8345 
   5   2.0000     -19.209285      -522.7112 
   6   2.0000     -19.204867      -522.5910 
   7   2.0000     -19.202978      -522.5396 
   8   2.0000     -19.196886      -522.3738 
   9   2.0000      -9.483209      -258.0512 
  10   2.0000      -7.232310      -196.8012 
  11   2.0000      -7.232171      -196.7974 
  12   2.0000      -7.232102      -196.7955 
  13   2.0000      -1.150372       -31.3032 
  14   2.0000      -1.144424       -31.1413 
  15   2.0000      -1.143327       -31.1115 
  16   2.0000      -1.136493       -30.9255 
  17   2.0000      -1.132382       -30.8137 
  18   2.0000      -1.127666       -30.6853 
  19   2.0000      -1.121222       -30.5100 
  20   2.0000      -1.116680       -30.3864 
  21   2.0000      -0.868313       -23.6280 
  22   2.0000      -0.647755       -17.6263 
  23   2.0000      -0.645945       -17.5770 
  24   2.0000      -0.641968       -17.4688 
  25   2.0000      -0.636594       -17.3226 
  26   2.0000      -0.634060       -17.2536 
  27   2.0000      -0.631879       -17.1943 
  28   2.0000      -0.627652       -17.0793 
  29   2.0000      -0.622477       -16.9384 
  30   2.0000      -0.531144       -14.4532 
  31   2.0000      -0.529073       -14.3968 
  32   2.0000      -0.521459       -14.1896 
  33   2.0000      -0.512412       -13.9434 
  34   2.0000      -0.506418       -13.7803 
  35   2.0000      -0.501827       -13.6554 
  36   2.0000      -0.501010       -13.6332 
  37   2.0000      -0.494225       -13.4485 
  38   2.0000      -0.434304       -11.8180 
  39   2.0000      -0.433951       -11.8084 
  40   2.0000      -0.433050       -11.7839 
  41   2.0000      -0.428999       -11.6736 
  42   2.0000      -0.423774       -11.5315 
  43   2.0000      -0.419252       -11.4084 
  44   2.0000      -0.417571       -11.3627 
  45   2.0000      -0.416327       -11.3288 
  46   2.0000      -0.383867       -10.4455 
  47   2.0000      -0.382330       -10.4037 
  48   2.0000      -0.381448       -10.3797 
  49   0.0000       0.045668         1.2427 
  50   0.0000       0.061237         1.6664 
  51   0.0000       0.064986         1.7684 
  52   0.0000       0.067950         1.8490 
  53   0.0000       0.084912         2.3106 
  54   0.0000       0.087542         2.3821 
  55   0.0000       0.089926         2.4470 
  56   0.0000       0.093495         2.5441 
  57   0.0000       0.102040         2.7766 
  58   0.0000       0.119479         3.2512 
  59   0.0000       0.123310         3.3554 
  60   0.0000       0.127804         3.4777 
  61   0.0000       0.128295         3.4911 
  62   0.0000       0.134156         3.6506 
  63   0.0000       0.136750         3.7212 
  64   0.0000       0.139553         3.7974 
  65   0.0000       0.144624         3.9354 
  66   0.0000       0.158309         4.3078 
  67   0.0000       0.162737         4.4283 
  68   0.0000       0.167898         4.5687 
  69   0.0000       0.173352         4.7172 
  70   0.0000       0.173842         4.7305 
  71   0.0000       0.176399         4.8000 
  72   0.0000       0.179020         4.8714 
  73   0.0000       0.181596         4.9415 
  74   0.0000       0.190401         5.1811 
  75   0.0000       0.197409         5.3718 
  76   0.0000       0.202110         5.4997 
  77   0.0000       0.203554         5.5390 
  78   0.0000       0.210249         5.7212 
  79   0.0000       0.215176         5.8552 
  80   0.0000       0.216638         5.8950 
  81   0.0000       0.223321         6.0769 
  82   0.0000       0.226803         6.1716 
  83   0.0000       0.237965         6.4754 
  84   0.0000       0.252598         6.8735 
  85   0.0000       0.256803         6.9880 
  86   0.0000       0.261981         7.1289 
  87   0.0000       0.270308         7.3555 
  88   0.0000       0.272125         7.4049 
  89   0.0000       0.278072         7.5667 
  90   0.0000       0.281024         7.6471 
  91   0.0000       0.291945         7.9442 
  92   0.0000       0.296343         8.0639 
  93   0.0000       0.299995         8.1633 
  94   0.0000       0.303094         8.2476 
  95   0.0000       0.310235         8.4419 
  96   0.0000       0.320821         8.7300 
  97   0.0000       0.323010         8.7896 
  98   0.0000       0.323498         8.8028 
  99   0.0000       0.328398         8.9362 
 100   0.0000       0.332388         9.0447 
 101   0.0000       0.340017         9.2523 
 102   0.0000       0.343775         9.3546 
 103   0.0000       0.349546         9.5116 
 104   0.0000       0.350688         9.5427 
 105   0.0000       0.355954         9.6860 
 106   0.0000       0.356234         9.6936 
 107   0.0000       0.364473         9.9178 
 108   0.0000       0.369505        10.0547 
 109   0.0000       0.372718        10.1422 
 110   0.0000       0.377007        10.2589 
 111   0.0000       0.379962        10.3393 
 112   0.0000       0.385695        10.4953 
 113   0.0000       0.387825        10.5533 
 114   0.0000       0.390005        10.6126 
 115   0.0000       0.393568        10.7095 
 116   0.0000       0.404093        10.9959 
 117   0.0000       0.405265        11.0278 
 118   0.0000       0.406195        11.0531 
 119   0.0000       0.409824        11.1519 
 120   0.0000       0.416007        11.3201 
 121   0.0000       0.418862        11.3978 
 122   0.0000       0.421507        11.4698 
 123   0.0000       0.425417        11.5762 
 124   0.0000       0.428163        11.6509 
 125   0.0000       0.437246        11.8981 
 126   0.0000       0.443914        12.0795 
 127   0.0000       0.444072        12.0838 
 128   0.0000       0.451414        12.2836 
 129   0.0000       0.452271        12.3069 
 130   0.0000       0.457750        12.4560 
 131   0.0000       0.464834        12.6488 
 132   0.0000       0.466066        12.6823 
 133   0.0000       0.478312        13.0155 
 134   0.0000       0.484320        13.1790 
 135   0.0000       0.487322        13.2607 
 136   0.0000       0.497232        13.5304 
 137   0.0000       0.499237        13.5849 
 138   0.0000       0.505668        13.7599 
 139   0.0000       0.511070        13.9069 
 140   0.0000       0.514464        13.9993 
 141   0.0000       0.521298        14.1852 
 142   0.0000       0.524314        14.2673 
 143   0.0000       0.530680        14.4405 
 144   0.0000       0.543211        14.7815 
 145   0.0000       0.544880        14.8269 
 146   0.0000       0.550337        14.9754 
 147   0.0000       0.559788        15.2326 
 148   0.0000       0.560582        15.2542 
 149   0.0000       0.572350        15.5744 
 150   0.0000       0.578823        15.7506 
 151   0.0000       0.582103        15.8398 
 152   0.0000       0.588528        16.0147 
 153   0.0000       0.591456        16.0943 
 154   0.0000       0.598057        16.2740 
 155   0.0000       0.604870        16.4593 
 156   0.0000       0.611609        16.6427 
 157   0.0000       0.618992        16.8436 
 158   0.0000       0.623626        16.9697 
 159   0.0000       0.633068        17.2266 
 160   0.0000       0.637991        17.3606 
 161   0.0000       0.650716        17.7069 
 162   0.0000       0.654324        17.8051 
 163   0.0000       0.659210        17.9380 
 164   0.0000       0.668178        18.1820 
 165   0.0000       0.677865        18.4457 
 166   0.0000       0.679358        18.4863 
 167   0.0000       0.687917        18.7192 
 168   0.0000       0.694263        18.8919 
 169   0.0000       0.697473        18.9792 
 170   0.0000       0.708080        19.2678 
 171   0.0000       0.711952        19.3732 
 172   0.0000       0.713765        19.4225 
 173   0.0000       0.720567        19.6076 
 174   0.0000       0.724297        19.7091 
 175   0.0000       0.728374        19.8201 
 176   0.0000       0.736101        20.0303 
 177   0.0000       0.740338        20.1456 
 178   0.0000       0.748012        20.3544 
 179   0.0000       0.754392        20.5281 
 180   0.0000       0.762654        20.7529 
 181   0.0000       0.765653        20.8345 
 182   0.0000       0.769254        20.9325 
 183   0.0000       0.781711        21.2715 
 184   0.0000       0.787400        21.4262 
 185   0.0000       0.789777        21.4909 
 186   0.0000       0.797701        21.7065 
 187   0.0000       0.800884        21.7932 
 188   0.0000       0.809486        22.0272 
 189   0.0000       0.818762        22.2796 
 190   0.0000       0.822651        22.3855 
 191   0.0000       0.833860        22.6905 
 192   0.0000       0.837838        22.7987 
 193   0.0000       0.844258        22.9734 
 194   0.0000       0.850202        23.1352 
 195   0.0000       0.859166        23.3791 
 196   0.0000       0.863466        23.4961 
 197   0.0000       0.870448        23.6861 
 198   0.0000       0.883402        24.0386 
 199   0.0000       0.888040        24.1648 
 200   0.0000       0.891363        24.2552 
 201   0.0000       0.893683        24.3184 
 202   0.0000       0.903276        24.5794 
 203   0.0000       0.913859        24.8674 
 204   0.0000       0.915242        24.9050 
 205   0.0000       0.925461        25.1831 
 206   0.0000       0.931171        25.3384 
 207   0.0000       0.932264        25.3682 
 208   0.0000       0.942935        25.6586 
 209   0.0000       0.946641        25.7594 
 210   0.0000       0.952902        25.9298 
 211   0.0000       0.958288        26.0763 
 212   0.0000       0.967644        26.3309 
 213   0.0000       0.973268        26.4840 
 214   0.0000       0.988836        26.9076 
 215   0.0000       0.994179        27.0530 
 216   0.0000       1.003294        27.3010 
 217   0.0000       1.014053        27.5938 
 218   0.0000       1.028494        27.9867 
 219   0.0000       1.046025        28.4638 
 220   0.0000       1.058050        28.7910 
 221   0.0000       1.066558        29.0225 
 222   0.0000       1.071328        29.1523 
 223   0.0000       1.078256        29.3408 
 224   0.0000       1.084028        29.4979 
 225   0.0000       1.090872        29.6841 
 226   0.0000       1.115247        30.3474 
 227   0.0000       1.121367        30.5139 
 228   0.0000       1.123953        30.5843 
 229   0.0000       1.132245        30.8099 
 230   0.0000       1.133448        30.8427 
 231   0.0000       1.151475        31.3332 
 232   0.0000       1.158362        31.5206 
 233   0.0000       1.160174        31.5699 
 234   0.0000       1.168159        31.7872 
 235   0.0000       1.174701        31.9652 
 236   0.0000       1.179226        32.0884 
 237   0.0000       1.197539        32.5867 
 238   0.0000       1.204799        32.7842 
 239   0.0000       1.213521        33.0216 
 240   0.0000       1.236297        33.6414 
 241   0.0000       1.267495        34.4903 
 242   0.0000       1.272635        34.6302 
 243   0.0000       1.279746        34.8237 
 244   0.0000       1.302257        35.4362 
 245   0.0000       1.335594        36.3434 
 246   0.0000       1.356546        36.9135 
 247   0.0000       1.379696        37.5434 
 248   0.0000       1.412976        38.4490 
 249   0.0000       1.459090        39.7039 
 250   0.0000       1.473880        40.1063 
 251   0.0000       1.651691        44.9448 
 252   0.0000       1.681213        45.7481 
 253   0.0000       1.696436        46.1624 
 254   0.0000       1.715296        46.6756 
 255   0.0000       1.719432        46.7881 
 256   0.0000       1.726647        46.9845 
 257   0.0000       1.738219        47.2993 
 258   0.0000       1.739016        47.3210 
 259   0.0000       1.752859        47.6977 
 260   0.0000       1.762357        47.9562 
 261   0.0000       1.767574        48.0981 
 262   0.0000       1.774096        48.2756 
 263   0.0000       1.778666        48.4000 
 264   0.0000       1.781714        48.4829 
 265   0.0000       1.792139        48.7666 
 266   0.0000       1.803043        49.0633 
 267   0.0000       1.816634        49.4331 
 268   0.0000       1.824509        49.6474 
 269   0.0000       1.829159        49.7739 
 270   0.0000       1.833638        49.8958 
 271   0.0000       1.851981        50.3950 
 272   0.0000       1.859110        50.5890 
 273   0.0000       1.867915        50.8286 
 274   0.0000       1.879859        51.1536 
 275   0.0000       1.893390        51.5218 
 276   0.0000       1.899504        51.6881 
 277   0.0000       1.913294        52.0634 
 278   0.0000       1.938376        52.7459 
 279   0.0000       1.948867        53.0314 
 280   0.0000       1.964917        53.4681 
 281   0.0000       1.967679        53.5433 
 282   0.0000       1.981007        53.9059 
 283   0.0000       1.998111        54.3714 
 284   0.0000       2.007120        54.6165 
 285   0.0000       2.015411        54.8421 
 286   0.0000       2.030841        55.2620 
 287   0.0000       2.045201        55.6527 
 288   0.0000       2.051590        55.8266 
 289   0.0000       2.078361        56.5551 
 290   0.0000       2.089307        56.8529 
 291   0.0000       2.098386        57.1000 
 292   0.0000       2.127342        57.8879 
 293   0.0000       2.133874        58.0657 
 294   0.0000       2.147132        58.4264 
 295   0.0000       2.163461        58.8708 
 296   0.0000       2.171477        59.0889 
 297   0.0000       2.191462        59.6327 
 298   0.0000       2.206101        60.0311 
 299   0.0000       2.208719        60.1023 
 300   0.0000       2.225482        60.5584 
 301   0.0000       2.244419        61.0737 
 302   0.0000       2.256985        61.4157 
 303   0.0000       2.264197        61.6119 
 304   0.0000       2.283326        62.1325 
 305   0.0000       2.288173        62.2644 
 306   0.0000       2.297811        62.5266 
 307   0.0000       2.298423        62.5433 
 308   0.0000       2.304528        62.7094 
 309   0.0000       2.311741        62.9057 
 310   0.0000       2.315062        62.9960 
 311   0.0000       2.321242        63.1642 
 312   0.0000       2.332441        63.4689 
 313   0.0000       2.344535        63.7980 
 314   0.0000       2.354730        64.0755 
 315   0.0000       2.364436        64.3396 
 316   0.0000       2.379990        64.7628 
 317   0.0000       2.398742        65.2731 
 318   0.0000       2.411311        65.6151 
 319   0.0000       2.414765        65.7091 
 320   0.0000       2.442606        66.4667 
 321   0.0000       2.444908        66.5293 
 322   0.0000       2.461312        66.9757 
 323   0.0000       2.474136        67.3247 
 324   0.0000       2.504984        68.1641 
 325   0.0000       2.517555        68.5062 
 326   0.0000       2.531806        68.8939 
 327   0.0000       2.557114        69.5826 
 328   0.0000       2.574741        70.0623 
 329   0.0000       2.586549        70.3836 
 330   0.0000       2.593442        70.5711 
 331   0.0000       2.602406        70.8151 
 332   0.0000       2.619370        71.2767 
 333   0.0000       2.634034        71.6757 
 334   0.0000       2.649885        72.1070 
 335   0.0000       2.725089        74.1535 
 336   0.0000       2.733022        74.3693 
 337   0.0000       2.759616        75.0930 
 338   0.0000       2.769666        75.3665 
 339   0.0000       2.783610        75.7459 
 340   0.0000       2.804545        76.3156 
 341   0.0000       2.832380        77.0730 
 342   0.0000       2.846965        77.4699 
 343   0.0000       2.850591        77.5685 
 344   0.0000       2.867276        78.0226 
 345   0.0000       2.868778        78.0634 
 346   0.0000       2.876087        78.2623 
 347   0.0000       2.888088        78.5889 
 348   0.0000       2.905358        79.0588 
 349   0.0000       2.908196        79.1360 
 350   0.0000       2.915515        79.3352 
 351   0.0000       2.930399        79.7402 
 352   0.0000       2.943089        80.0855 
 353   0.0000       2.959784        80.5398 
 354   0.0000       2.974625        80.9436 
 355   0.0000       2.985091        81.2285 
 356   0.0000       2.992096        81.4191 
 357   0.0000       2.995388        81.5086 
 358   0.0000       3.003752        81.7362 
 359   0.0000       3.019610        82.1678 
 360   0.0000       3.024865        82.3108 
 361   0.0000       3.033609        82.5487 
 362   0.0000       3.037925        82.6661 
 363   0.0000       3.047645        82.9306 
 364   0.0000       3.060818        83.2891 
 365   0.0000       3.071547        83.5810 
 366   0.0000       3.081822        83.8606 
 367   0.0000       3.096031        84.2473 
 368   0.0000       3.109758        84.6208 
 369   0.0000       3.134936        85.3059 
 370   0.0000       3.174221        86.3750 
 371   0.0000       3.183627        86.6309 
 372   0.0000       3.193704        86.9051 
 373   0.0000       3.218087        87.5686 
 374   0.0000       3.248348        88.3921 
 375   0.0000       3.267392        88.9103 
 376   0.0000       3.289773        89.5193 
 377   0.0000       3.371976        91.7561 
 378   0.0000       3.428002        93.2807 
 379   0.0000       3.449951        93.8779 
 380   0.0000       3.480547        94.7105 
 381   0.0000       3.503248        95.3282 
 382   0.0000       3.524054        95.8944 
 383   0.0000       3.535270        96.1996 
 384   0.0000       3.553049        96.6834 
 385   0.0000       3.575317        97.2893 
 386   0.0000       3.974542       108.1528 
 387   0.0000       3.982243       108.3623 
 388   0.0000       4.005862       109.0051 
 389   0.0000       4.033102       109.7463 
 390   0.0000       4.063426       110.5714 
 391   0.0000       4.077910       110.9656 
 392   0.0000       4.097206       111.4906 
 393   0.0000       4.128898       112.3530 
 394   0.0000       4.137988       112.6004 
 395   0.0000       4.142723       112.7292 
 396   0.0000       4.147777       112.8668 
 397   0.0000       4.166159       113.3670 
 398   0.0000       4.168367       113.4270 
 399   0.0000       4.172513       113.5398 
 400   0.0000       4.182022       113.7986 
 401   0.0000       4.227943       115.0482 
 402   0.0000       5.205219       141.6412 
 403   0.0000       5.207674       141.7080 
 404   0.0000       5.209637       141.7614 
 405   0.0000       5.216638       141.9519 
 406   0.0000       5.218576       142.0047 
 407   0.0000       5.220765       142.0643 
 408   0.0000       5.224334       142.1614 
 409   0.0000       5.232247       142.3767 
 410   0.0000       5.354634       145.7070 
 411   0.0000       5.357297       145.7795 
 412   0.0000       5.358268       145.8059 
 413   0.0000       5.374538       146.2486 
 414   0.0000       5.381747       146.4448 
 415   0.0000       5.384552       146.5211 
 416   0.0000       5.396248       146.8394 
 417   0.0000       5.408095       147.1618 
 418   0.0000       5.511944       149.9876 
 419   0.0000       5.517031       150.1261 
 420   0.0000       5.519140       150.1834 
 421   0.0000       5.524726       150.3354 
 422   0.0000       5.531699       150.5252 
 423   0.0000       5.533951       150.5865 
 424   0.0000       5.535710       150.6343 
 425   0.0000       5.556797       151.2081 
 426   0.0000       5.560829       151.3178 
 427   0.0000       5.572661       151.6398 
 428   0.0000       5.574579       151.6920 
 429   0.0000       5.576657       151.7486 
 430   0.0000       5.580864       151.8630 
 431   0.0000       5.584000       151.9484 
 432   0.0000       5.589849       152.1075 
 433   0.0000       5.590740       152.1318 
 434   0.0000       5.598853       152.3525 
 435   0.0000       5.601245       152.4176 
 436   0.0000       5.609464       152.6413 
 437   0.0000       5.616713       152.8385 
 438   0.0000       5.622019       152.9829 
 439   0.0000       5.631316       153.2359 
 440   0.0000       5.636867       153.3869 
 441   0.0000       5.643016       153.5543 
 442   0.0000       6.149659       167.3407 
 443   0.0000       6.157966       167.5668 
 444   0.0000       6.160838       167.6449 
 445   0.0000       6.167239       167.8191 
 446   0.0000       6.169367       167.8770 
 447   0.0000       6.178802       168.1337 
 448   0.0000       6.181745       168.2138 
 449   0.0000       6.188145       168.3880 
 450   0.0000       6.371377       173.3740 
 451   0.0000       6.401245       174.1867 
 452   0.0000       6.410137       174.4287 
 453   0.0000       6.439189       175.2193 
 454   0.0000       6.452455       175.5802 
 455   0.0000       6.454628       175.6394 
 456   0.0000       6.483211       176.4171 
 457   0.0000       6.494585       176.7266 
 458   0.0000       6.599403       179.5789 
 459   0.0000       6.627964       180.3561 
 460   0.0000       6.631955       180.4647 
 461   0.0000       6.644791       180.8140 
 462   0.0000       6.647462       180.8866 
 463   0.0000       6.649288       180.9363 
 464   0.0000       6.657675       181.1645 
 465   0.0000       6.660055       181.2293 
 466   0.0000       6.664936       181.3621 
 467   0.0000       6.667138       181.4220 
 468   0.0000       6.672680       181.5729 
 469   0.0000       6.675527       181.6503 
 470   0.0000       6.683774       181.8747 
 471   0.0000       6.688010       181.9900 
 472   0.0000       6.692733       182.1185 
 473   0.0000       6.695630       182.1974 
 474   0.0000       6.700317       182.3249 
 475   0.0000       6.704426       182.4367 
 476   0.0000       6.720661       182.8785 
 477   0.0000       6.723405       182.9531 
 478   0.0000       6.730093       183.1351 
 479   0.0000       6.746354       183.5776 
 480   0.0000       6.756086       183.8424 
 481   0.0000       6.772245       184.2822 
 482   0.0000       7.007280       190.6778 
 483   0.0000       7.030928       191.3213 
 484   0.0000       7.091043       192.9571 
 485   0.0000       7.100296       193.2089 
 486   0.0000       7.110061       193.4746 
 487   0.0000       7.154598       194.6865 
 488   0.0000       7.166117       195.0000 
 489   0.0000       7.202943       196.0020 
 490   0.0000       7.221700       196.5124 
 491   0.0000       7.235497       196.8879 
 492   0.0000       7.250542       197.2973 
 493   0.0000       7.319769       199.1810 
 494   0.0000       7.332756       199.5344 
 495   0.0000       7.342129       199.7895 
 496   0.0000       7.352794       200.0797 
 497   0.0000       7.384328       200.9378 
 498   0.0000      11.223781       305.4146 
 499   0.0000      11.259400       306.3839 
 500   0.0000      11.309369       307.7436 
 501   0.0000      25.849440       703.3990 
 502   0.0000      43.991307      1197.0643 
 503   0.0000      44.051982      1198.7154 
 504   0.0000      44.079528      1199.4649 
 505   0.0000      44.121364      1200.6034 
 506   0.0000      44.156953      1201.5718 
 507   0.0000      44.170885      1201.9509 
 508   0.0000      44.201422      1202.7818 
 509   0.0000      44.313246      1205.8247 

                    ********************************
                    * MULLIKEN POPULATION ANALYSIS *
                    ********************************

-----------------------
MULLIKEN ATOMIC CHARGES
-----------------------
   0 Cl:   -0.894345
   1 O :   -0.783467
   2 H :    0.257191
   3 H :    0.438840
   4 O :   -0.645956
   5 H :    0.295133
   6 H :    0.351308
   7 O :   -0.739485
   8 H :    0.396140
   9 H :    0.389477
  10 O :   -0.720062
  11 H :    0.353481
  12 H :    0.383648
  13 O :   -0.700069
  14 H :    0.300192
  15 H :    0.356577
  16 O :   -0.673441
  17 H :    0.338035
  18 H :    0.294526
  19 O :   -0.736048
  20 H :    0.382815
  21 H :    0.393277
  22 O :   -0.732788
  23 H :    0.300714
  24 H :    0.394306
Sum of atomic charges:   -1.0000000

--------------------------------
MULLIKEN REDUCED ORBITAL CHARGES
--------------------------------
  0 Cls       :     6.016995  s :     6.016995
      pz      :     3.963015  p :    11.865224
      px      :     3.948129
      py      :     3.954080
      dz2     :     0.002657  d :     0.011996
      dxz     :     0.004525
      dyz     :     0.002070
      dx2y2   :     0.002607
      dxy     :     0.000136
      f0      :     0.000032  f :     0.000129
      f+1     :     0.000018
      f-1     :     0.000022
      f+2     :     0.000009
      f-2     :     0.000018
      f+3     :     0.000010
      f-3     :     0.000020
  1 O s       :     3.788901  s :     3.788901
      pz      :     1.824962  p :     4.964355
      px      :     1.525966
      py      :     1.613426
      dz2     :     0.003862  d :     0.029171
      dxz     :     0.003966
      dyz     :     0.007877
      dx2y2   :     0.003809
      dxy     :     0.009657
      f0      :     0.000288  f :     0.001040
      f+1     :     0.000083
      f-1     :     0.000031
      f+2     :     0.000116
      f-2     :     0.000344
      f+3     :     0.000077
      f-3     :     0.000101
  2 H s       :     0.693957  s :     0.693957
      pz      :     0.003156  p :     0.048853
      px      :     0.051765
      py      :    -0.006068
  3 H s       :     0.534179  s :     0.534179
      pz      :     0.011735  p :     0.026981
      px      :     0.008705
      py      :     0.006540
  4 O s       :     3.739474  s :     3.739474
      pz      :     1.514795  p :     4.885346
      px      :     1.813668
      py      :     1.556883
      dz2     :     0.003815  d :     0.019989
      dxz     :     0.005580
      dyz     :     0.001936
      dx2y2   :     0.005086
      dxy     :     0.003571
      f0      :     0.000128  f :     0.001147
      f+1     :     0.000419
      f-1     :     0.000011
      f+2     :     0.000302
      f-2     :     0.000046
      f+3     :     0.000109
      f-3     :     0.000132
  5 H s       :     0.668411  s :     0.668411
      pz      :     0.009477  p :     0.036456
      px      :     0.014039
      py      :     0.012940
  6 H s       :     0.606272  s :     0.606272
      pz      :     0.019300  p :     0.042420
      px      :     0.017659
      py      :     0.005461
  7 O s       :     3.780486  s :     3.780486
      pz      :     1.404226  p :     4.929876
      px      :     1.612002
      py      :     1.913647
      dz2     :     0.005425  d :     0.028045
      dxz     :     0.008890
      dyz     :     0.002551
      dx2y2   :     0.007112
      dxy     :     0.004067
      f0      :     0.000272  f :     0.001079
      f+1     :     0.000088
      f-1     :     0.000204
      f+2     :     0.000249
      f-2     :     0.000057
      f+3     :     0.000141
      f-3     :     0.000068
  8 H s       :     0.593790  s :     0.593790
      pz      :    -0.011360  p :     0.010070
      px      :    -0.000088
      py      :     0.021518
  9 H s       :     0.574884  s :     0.574884
      pz      :     0.012902  p :     0.035639
      px      :     0.005820
      py      :     0.016916
 10 O s       :     3.759041  s :     3.759041
      pz      :     1.361494  p :     4.933275
      px      :     1.808686
      py      :     1.763095
      dz2     :     0.002072  d :     0.026605
      dxz     :     0.006203
      dyz     :     0.006905
      dx2y2   :     0.003842
      dxy     :     0.007584
      f0      :     0.000162  f :     0.001142
      f+1     :     0.000213
      f-1     :     0.000265
      f+2     :     0.000011
      f-2     :     0.000332
      f+3     :     0.000095
      f-3     :     0.000064
 11 H s       :     0.593291  s :     0.593291
      pz      :     0.014577  p :     0.053228
      px      :     0.018787
      py      :     0.019864
 12 H s       :     0.586278  s :     0.586278
      pz      :     0.007969  p :     0.030074
      px      :     0.008300
      py      :     0.013806
 13 O s       :     3.767100  s :     3.767100
      pz      :     1.361712  p :     4.908181
      px      :     1.864173
      py      :     1.682296
      dz2     :     0.000565  d :     0.023623
      dxz     :     0.002392
      dyz     :     0.010270
      dx2y2   :     0.005363
      dxy     :     0.005034
      f0      :     0.000067  f :     0.001166
      f+1     :     0.000170
      f-1     :     0.000431
      f+2     :     0.000126
      f-2     :     0.000234
      f+3     :     0.000089
      f-3     :     0.000049
 14 H s       :     0.662612  s :     0.662612
      pz      :     0.022993  p :     0.037196
      px      :     0.016621
      py      :    -0.002417
 15 H s       :     0.587674  s :     0.587674
      pz      :     0.019651  p :     0.055749
      px      :     0.020002
      py      :     0.016096
 16 O s       :     3.748280  s :     3.748280
      pz      :     1.432031  p :     4.900857
      px      :     1.539857
      py      :     1.928969
      dz2     :     0.007597  d :     0.023131
      dxz     :     0.002463
      dyz     :     0.001657
      dx2y2   :     0.007619
      dxy     :     0.003796
      f0      :     0.000510  f :     0.001173
      f+1     :    -0.000007
      f-1     :     0.000056
      f+2     :     0.000146
      f-2     :     0.000045
      f+3     :     0.000227
      f-3     :     0.000197
 17 H s       :     0.604129  s :     0.604129
      pz      :     0.008981  p :     0.057835
      px      :     0.024384
      py      :     0.024470
 18 H s       :     0.666341  s :     0.666341
      pz      :     0.002190  p :     0.039133
      px      :     0.022531
      py      :     0.014412
 19 O s       :     3.774459  s :     3.774459
      pz      :     1.777225  p :     4.931579
      px      :     1.585172
      py      :     1.569182
      dz2     :     0.005448  d :     0.028933
      dxz     :     0.005872
      dyz     :     0.004012
      dx2y2   :     0.007750
      dxy     :     0.005851
      f0      :     0.000188  f :     0.001076
      f+1     :     0.000152
      f-1     :     0.000133
      f+2     :     0.000251
      f-2     :     0.000123
      f+3     :     0.000211
      f-3     :     0.000018
 20 H s       :     0.579046  s :     0.579046
      pz      :     0.013735  p :     0.038139
      px      :     0.015583
      py      :     0.008821
 21 H s       :     0.581141  s :     0.581141
      pz      :    -0.001526  p :     0.025581
      px      :     0.026144
      py      :     0.000964
 22 O s       :     3.787691  s :     3.787691
      pz      :     1.869621  p :     4.919359
      px      :     1.433497
      py      :     1.616241
      dz2     :     0.004065  d :     0.024660
      dxz     :     0.001822
      dyz     :     0.005495
      dx2y2   :     0.007831
      dxy     :     0.005447
      f0      :     0.000223  f :     0.001078
      f+1     :     0.000226
      f-1     :     0.000077
      f+2     :     0.000154
      f-2     :     0.000126
      f+3     :     0.000241
      f-3     :     0.000030
 23 H s       :     0.663616  s :     0.663616
      pz      :     0.020862  p :     0.035669
      px      :     0.012401
      py      :     0.002407
 24 H s       :     0.577271  s :     0.577271
      pz      :     0.024241  p :     0.028423
      px      :     0.005457
      py      :    -0.001276


                     *******************************
                     * LOEWDIN POPULATION ANALYSIS *
                     *******************************

----------------------
LOEWDIN ATOMIC CHARGES
----------------------
   0 Cl:   -0.042461
   1 O :   -0.102460
   2 H :   -0.048680
   3 H :    0.022980
   4 O :   -0.133589
   5 H :   -0.085026
   6 H :   -0.016116
   7 O :   -0.097671
   8 H :    0.011517
   9 H :    0.004710
  10 O :   -0.078974
  11 H :    0.067122
  12 H :    0.007739
  13 O :   -0.103415
  14 H :   -0.085435
  15 H :    0.067781
  16 O :   -0.101369
  17 H :    0.066602
  18 H :   -0.085910
  19 O :   -0.104970
  20 H :    0.003632
  21 H :    0.007102
  22 O :   -0.115661
  23 H :   -0.067676
  24 H :    0.010224

-------------------------------
LOEWDIN REDUCED ORBITAL CHARGES
-------------------------------
  0 Cls       :     5.639407  s :     5.639407
      pz      :     3.728991  p :    11.292793
      px      :     3.783892
      py      :     3.779910
      dz2     :     0.035420  d :     0.109879
      dxz     :     0.013876
      dyz     :     0.018855
      dx2y2   :     0.017549
      dxy     :     0.024178
      f0      :     0.000104  f :     0.000383
      f+1     :     0.000037
      f-1     :     0.000062
      f+2     :     0.000023
      f-2     :     0.000056
      f+3     :     0.000030
      f-3     :     0.000071
  1 O s       :     3.339641  s :     3.339641
      pz      :     1.630048  p :     4.624094
      px      :     1.444772
      py      :     1.549274
      dz2     :     0.024272  d :     0.136687
      dxz     :     0.038284
      dyz     :     0.022118
      dx2y2   :     0.013067
      dxy     :     0.038946
      f0      :     0.000492  f :     0.002039
      f+1     :     0.000028
      f-1     :     0.000018
      f+2     :     0.000152
      f-2     :     0.000605
      f+3     :     0.000349
      f-3     :     0.000395
  2 H s       :     0.586792  s :     0.586792
      pz      :     0.124421  p :     0.461888
      px      :     0.195864
      py      :     0.141604
  3 H s       :     0.565992  s :     0.565992
      pz      :     0.107861  p :     0.411028
      px      :     0.118647
      py      :     0.184520
  4 O s       :     3.382100  s :     3.382100
      pz      :     1.462439  p :     4.676521
      px      :     1.687407
      py      :     1.526675
      dz2     :     0.015358  d :     0.072822
      dxz     :     0.021236
      dyz     :     0.011283
      dx2y2   :     0.018425
      dxy     :     0.006520
      f0      :     0.000254  f :     0.002147
      f+1     :     0.000807
      f-1     :     0.000015
      f+2     :     0.000511
      f-2     :     0.000083
      f+3     :     0.000205
      f-3     :     0.000271
  5 H s       :     0.611198  s :     0.611198
      pz      :     0.105269  p :     0.473827
      px      :     0.121110
      py      :     0.247448
  6 H s       :     0.583288  s :     0.583288
      pz      :     0.192390  p :     0.432827
      px      :     0.149132
      py      :     0.091305
  7 O s       :     3.358611  s :     3.358611
      pz      :     1.367028  p :     4.634051
      px      :     1.548183
      py      :     1.718840
      dz2     :     0.025536  d :     0.102968
      dxz     :     0.028866
      dyz     :     0.010017
      dx2y2   :     0.031803
      dxy     :     0.006746
      f0      :     0.000501  f :     0.002041
      f+1     :     0.000290
      f-1     :     0.000317
      f+2     :     0.000526
      f-2     :     0.000136
      f+3     :     0.000217
      f-3     :     0.000054
  8 H s       :     0.577907  s :     0.577907
      pz      :     0.196295  p :     0.410576
      px      :     0.103706
      py      :     0.110575
  9 H s       :     0.575635  s :     0.575635
      pz      :     0.104777  p :     0.419655
      px      :     0.208822
      py      :     0.106056
 10 O s       :     3.355543  s :     3.355543
      pz      :     1.329536  p :     4.628187
      px      :     1.680262
      py      :     1.618389
      dz2     :     0.024443  d :     0.093118
      dxz     :     0.018219
      dyz     :     0.022645
      dx2y2   :     0.007643
      dxy     :     0.020167
      f0      :     0.000204  f :     0.002126
      f+1     :     0.000380
      f-1     :     0.000543
      f+2     :     0.000019
      f-2     :     0.000842
      f+3     :     0.000099
      f-3     :     0.000038
 11 H s       :     0.604670  s :     0.604670
      pz      :     0.099109  p :     0.328208
      px      :     0.117659
      py      :     0.111439
 12 H s       :     0.567482  s :     0.567482
      pz      :     0.200597  p :     0.424779
      px      :     0.114185
      py      :     0.109997
 13 O s       :     3.359747  s :     3.359747
      pz      :     1.340393  p :     4.647571
      px      :     1.695079
      py      :     1.612099
      dz2     :     0.012193  d :     0.093899
      dxz     :     0.021921
      dyz     :     0.033762
      dx2y2   :     0.018662
      dxy     :     0.007362
      f0      :     0.000040  f :     0.002196
      f+1     :     0.000219
      f-1     :     0.000932
      f+2     :     0.000324
      f-2     :     0.000571
      f+3     :     0.000074
      f-3     :     0.000037
 14 H s       :     0.602338  s :     0.602338
      pz      :     0.192062  p :     0.483097
      px      :     0.134580
      py      :     0.156456
 15 H s       :     0.605345  s :     0.605345
      pz      :     0.120138  p :     0.326874
      px      :     0.090721
      py      :     0.116014
 16 O s       :     3.358703  s :     3.358703
      pz      :     1.425089  p :     4.647820
      px      :     1.483357
      py      :     1.739374
      dz2     :     0.047274  d :     0.092644
      dxz     :     0.006034
      dyz     :     0.004085
      dx2y2   :     0.024357
      dxy     :     0.010893
      f0      :     0.001077  f :     0.002203
      f+1     :     0.000129
      f-1     :     0.000055
      f+2     :     0.000250
      f-2     :     0.000067
      f+3     :     0.000345
      f-3     :     0.000280
 17 H s       :     0.606223  s :     0.606223
      pz      :     0.074587  p :     0.327175
      px      :     0.154848
      py      :     0.097739
 18 H s       :     0.603663  s :     0.603663
      pz      :     0.280608  p :     0.482248
      px      :     0.091508
      py      :     0.110132
 19 O s       :     3.361578  s :     3.361578
      pz      :     1.639211  p :     4.637197
      px      :     1.489813
      py      :     1.508173
      dz2     :     0.016058  d :     0.104146
      dxz     :     0.037533
      dyz     :     0.008877
      dx2y2   :     0.024597
      dxy     :     0.017081
      f0      :     0.000256  f :     0.002049
      f+1     :     0.000154
      f-1     :     0.000276
      f+2     :     0.000480
      f-2     :     0.000149
      f+3     :     0.000541
      f-3     :     0.000194
 20 H s       :     0.577833  s :     0.577833
      pz      :     0.098383  p :     0.418535
      px      :     0.101384
      py      :     0.218769
 21 H s       :     0.578123  s :     0.578123
      pz      :     0.158350  p :     0.414775
      px      :     0.161049
      py      :     0.095375
 22 O s       :     3.358571  s :     3.358571
      pz      :     1.686198  p :     4.644453
      px      :     1.409363
      py      :     1.548891
      dz2     :     0.031441  d :     0.110552
      dxz     :     0.013921
      dyz     :     0.014008
      dx2y2   :     0.033924
      dxy     :     0.017259
      f0      :     0.000304  f :     0.002085
      f+1     :     0.000350
      f-1     :     0.000029
      f+2     :     0.000249
      f-2     :     0.000212
      f+3     :     0.000639
      f-3     :     0.000302
 23 H s       :     0.602135  s :     0.602135
[...]
     48       0.001554  -0.003713   0.000966   0.001389  -0.000045   0.001120
     49      -0.000713   0.003495  -0.001378  -0.000816   0.000386  -0.000570
     50      -0.005746   0.030549  -0.009917  -0.006876   0.002336  -0.003199
     51      -0.026775   0.068314  -0.016285  -0.025010   0.000313  -0.019076
     52       0.006678  -0.015212   0.002842   0.006006   0.000430   0.004537
     53      -0.011444   0.038658  -0.010937  -0.011864   0.001573  -0.008204
     54       0.002046  -0.009782   0.002947   0.002535  -0.000670   0.001539
     55       0.007124  -0.036075   0.012182   0.007811  -0.002977   0.003555
     56       0.103853  -0.517544   0.166074   0.121278  -0.037852   0.060260
     57       0.001026   0.012827  -0.041410   0.007053   0.026205  -0.002021
     58      -0.017922  -0.029674   0.008484   0.001941  -0.003400  -0.002763
     59      -0.000429   0.006521  -0.028230   0.005042   0.018285  -0.000962
     60      -0.124257  -0.214346   0.089519   0.007827  -0.044418  -0.016906
     61       0.271181   0.480522  -0.242853  -0.009257   0.126286   0.036441
     62      -0.063572  -0.104191   0.037667   0.004808  -0.018576  -0.010227
     63       0.106769   0.011763   0.561453  -0.118454  -0.369747   0.045794
     64       0.008953  -0.013011   0.109417  -0.022142  -0.074907   0.007134
     65       0.071951   0.005286   0.404858  -0.085764  -0.270441   0.030678
     66      -0.008342   0.013203   0.005944   0.059286  -0.010692   0.007832
     67      -0.000473  -0.000589   0.004792  -0.000207   0.004662   0.000123
     68      -0.001663   0.003117  -0.000456   0.013102  -0.004096   0.001681
     69       0.127914  -0.193307  -0.123375  -0.890805   0.127225  -0.119970
     70       0.020540  -0.032409  -0.019033  -0.155090   0.024302  -0.021568
     71       0.019170  -0.028965  -0.019522  -0.134961   0.018530  -0.018495
     72       0.002076  -0.012926   0.029812  -0.042758   0.040656  -0.004798
     73      -0.014073   0.042621  -0.057914   0.156755  -0.099523   0.018789
     74       0.006074  -0.018831   0.027170  -0.067566   0.045498  -0.008055
                 72         73         74    
      0       0.000005  -0.000020  -0.000023
      1       0.000004   0.000039   0.000009
      2      -0.000001  -0.000123  -0.000063
      3       0.001020   0.000181  -0.000454
      4       0.000979  -0.000085   0.000147
      5      -0.000700  -0.000084   0.000241
      6      -0.003665  -0.002973   0.006931
      7       0.002235   0.001577  -0.003784
      8       0.001720   0.001529  -0.003357
      9      -0.012004   0.000009   0.000628
     10      -0.018755  -0.000115   0.001217
     11       0.009797  -0.000000  -0.000541
     12       0.000001  -0.000035   0.000041
     13       0.000008  -0.000273   0.000554
     14       0.000005  -0.000166   0.000378
     15      -0.000026   0.001022  -0.002037
     16      -0.000136   0.004575  -0.009228
     17      -0.000061   0.002135  -0.004076
     18       0.000014  -0.000380   0.001276
     19       0.000001  -0.000108   0.000173
     20      -0.000024   0.000557  -0.001938
     21       0.000022   0.001075  -0.000377
     22       0.000030   0.000086  -0.000032
     23      -0.000023  -0.000951   0.000337
     24       0.000040   0.001418  -0.000515
     25      -0.000089   0.001050  -0.000375
     26      -0.000091   0.003055  -0.001131
     27      -0.000494  -0.018641   0.006556
     28      -0.000108  -0.001700   0.000610
     29       0.000360   0.012594  -0.004414
     30       0.027014  -0.000351  -0.000668
     31      -0.030043   0.000389   0.000747
     32       0.048379  -0.000642  -0.001179
     33      -0.471822   0.006180   0.011630
     34       0.529370  -0.006939  -0.013043
     35      -0.694510   0.009093   0.017116
     36       0.041538  -0.000585  -0.000962
     37      -0.051542   0.000734   0.001184
     38      -0.069544   0.001050   0.001501
     39      -0.000015  -0.002456   0.000610
     40       0.000125   0.026219  -0.008704
     41       0.000238   0.054313  -0.019027
     42      -0.000211  -0.061802   0.025037
     43       0.000279   0.085671  -0.034193
     44      -0.000219  -0.080281   0.034585
     45       0.000457   0.101622  -0.034935
     46      -0.002290  -0.503892   0.172810
     47      -0.003545  -0.779678   0.266981
     48       0.001536   0.018191   0.052669
     49      -0.000360  -0.004273  -0.012250
     50       0.000801   0.008918   0.027434
     51      -0.025124  -0.297252  -0.860102
     52       0.006169   0.072854   0.210862
     53      -0.008428  -0.100047  -0.288658
     54       0.000676   0.008440   0.023820
     55      -0.000494  -0.005141  -0.016680
     56      -0.004183  -0.040117  -0.143836
     57       0.000003  -0.000229  -0.000673
     58       0.000023   0.000396   0.001180
     59       0.000005  -0.000110  -0.000334
     60       0.000175   0.003206   0.009494
     61      -0.000338  -0.006656  -0.019804
     62       0.000066   0.001264   0.003777
     63      -0.000224   0.000660   0.001897
     64      -0.000047   0.000354   0.001056
     65      -0.000180   0.000504   0.001481
     66       0.000541   0.000237  -0.000509
     67       0.000535  -0.000008  -0.000028
     68      -0.000401   0.000057  -0.000093
     69      -0.011560  -0.003593   0.008072
     70      -0.001528  -0.000795   0.001667
     71      -0.001403  -0.000522   0.001200
     72       0.003934  -0.000312   0.000262
     73      -0.007297   0.000809  -0.000999
     74       0.003592  -0.000345   0.000422


-----------
IR SPECTRUM
-----------

 Mode   freq       eps      Int      T**2         TX        TY        TZ
       cm**-1   L/(mol*cm) km/mol    a.u.
----------------------------------------------------------------------------
  7:     26.92   0.000229    1.16  0.002657  ( 0.006674  0.003252  0.051006)
  8:     36.70   0.001495    7.55  0.012710  ( 0.007458 -0.103659  0.043693)
  9:     37.95   0.000119    0.60  0.000980  (-0.010776  0.011707 -0.026958)
 10:     50.01   0.002630   13.29  0.016410  ( 0.088858  0.072664 -0.056870)
 11:     57.76   0.000757    3.83  0.004090  (-0.043279 -0.022181  0.041538)
 12:     63.38   0.000457    2.31  0.002250  (-0.029514  0.034445  0.013882)
 13:     76.65   0.000167    0.84  0.000680  (-0.017632 -0.016335  0.010120)
 14:    101.55   0.001300    6.57  0.003994  (-0.016223  0.056993  0.021975)
 15:    112.54   0.000477    2.41  0.001323  ( 0.009399 -0.034110  0.008411)
 16:    126.49   0.000197    0.99  0.000485  (-0.011107 -0.011761  0.014955)
 17:    133.62   0.002097   10.60  0.004897  ( 0.048941  0.050005 -0.001275)
 18:    155.93   0.005868   29.66  0.011744  ( 0.053433 -0.047241 -0.081593)
 19:    160.90   0.005898   29.81  0.011440  (-0.053046  0.080566 -0.046204)
 20:    169.05   0.017500   88.44  0.032306  (-0.000065  0.079706 -0.161098)
 21:    175.05   0.005292   26.74  0.009433  (-0.044433 -0.082851  0.024388)
 22:    178.74   0.010062   50.85  0.017568  (-0.103415 -0.080740  0.018836)
 23:    189.17   0.009936   50.21  0.016391  ( 0.003422 -0.126464 -0.019638)
 24:    192.47   0.008108   40.97  0.013145  ( 0.063972  0.090100 -0.030579)
 25:    198.20   0.019020   96.12  0.029946  ( 0.036836 -0.155482  0.066441)
 26:    205.52   0.011260   56.90  0.017097  ( 0.008190 -0.054152 -0.118732)
 27:    218.68   0.003236   16.35  0.004618  ( 0.008314 -0.026268  0.062116)
 28:    238.35   0.030968  156.50  0.040545  ( 0.146906  0.078161 -0.113376)
 29:    260.76   0.024809  125.38  0.029690  (-0.114649 -0.119217  0.048298)
 30:    288.23   0.026123  132.01  0.028283  (-0.081898 -0.065876 -0.131286)
 31:    308.29   0.019270   97.38  0.019505  ( 0.102152  0.000535  0.095235)
 32:    369.25   0.010456   52.84  0.008836  ( 0.011256 -0.037512 -0.085454)
 33:    382.17   0.004120   20.82  0.003365  ( 0.009838 -0.057161  0.000684)
 34:    384.26   0.016575   83.76  0.013461  (-0.085136  0.028304 -0.073565)
 35:    390.78   0.006190   31.28  0.004943  (-0.069624  0.004753 -0.008544)
 36:    415.39   0.020511  103.65  0.015409  (-0.096201 -0.074199 -0.025471)
 37:    437.24   0.001842    9.31  0.001315  (-0.001725  0.034954  0.009481)
 38:    454.65   0.006669   33.70  0.004578  ( 0.062938 -0.013175 -0.021047)
 39:    479.94   0.005695   28.78  0.003703  ( 0.030499  0.015000  0.050474)
 40:    515.70   0.010809   54.63  0.006541  ( 0.067535  0.010081 -0.043339)
 41:    521.70   0.013580   68.63  0.008123  (-0.003319 -0.090063 -0.000790)
 42:    536.37   0.056336  284.70  0.032777  (-0.079557  0.053173  0.153689)
 43:    558.41   0.071973  363.72  0.040222  (-0.158302  0.100312 -0.071412)
 44:    624.84   0.065273  329.86  0.032599  ( 0.027904  0.048399 -0.171692)
 45:    667.26   0.058496  295.62  0.027357  ( 0.035330 -0.075368  0.142929)
 46:    671.26   0.042873  216.66  0.019931  ( 0.135005 -0.033643 -0.023944)
 47:    693.54   0.080687  407.76  0.036305  ( 0.090574  0.143073  0.087362)
 48:    711.81   0.029578  149.47  0.012967  (-0.025598 -0.103259 -0.040613)
 49:    742.41   0.037488  189.45  0.015758  (-0.054362 -0.024847  0.110386)
 50:    827.98   0.003669   18.54  0.001383  (-0.008290 -0.009718  0.034925)
 51:   1603.21   0.029320  148.17  0.005707  (-0.054786  0.043455  0.028588)
 52:   1604.10   0.003902   19.72  0.000759  ( 0.000259  0.026623 -0.007092)
 53:   1621.16   0.038013  192.10  0.007317  (-0.030345  0.079955 -0.001911)
 54:   1638.99   0.048560  245.40  0.009246  (-0.043797 -0.083225  0.020031)
 55:   1642.30   0.010835   54.76  0.002059  (-0.005306 -0.044511 -0.007036)
 56:   1645.08   0.009542   48.22  0.001810  ( 0.035526 -0.004890 -0.022893)
 57:   1653.35   0.040960  206.99  0.007731  (-0.050781 -0.064391 -0.031719)
 58:   1655.32   0.016233   82.04  0.003060  (-0.052095 -0.012228 -0.014034)
 59:   3488.91   0.095375  481.98  0.008531  ( 0.014442 -0.028635 -0.086615)
 60:   3549.94   0.222807  1125.97  0.019586  (-0.071396 -0.097363  0.070777)
 61:   3568.53   0.060591  306.20  0.005299  ( 0.047900  0.050672  0.020893)
 62:   3594.88   0.046940  237.22  0.004075  ( 0.030798  0.035321  0.043344)
 63:   3602.52   0.182371  921.63  0.015798  (-0.050122  0.106243 -0.044697)
 64:   3619.98   0.127220  642.92  0.010967  ( 0.032406  0.004284 -0.099492)
 65:   3627.75   0.081879  413.78  0.007043  (-0.053148 -0.005874  0.064685)
 66:   3642.57   0.133466  674.48  0.011434  (-0.086149  0.042505  0.046967)
 67:   3650.11   0.025484  128.78  0.002179  (-0.036043  0.018729 -0.022997)
 68:   3656.82   0.252473  1275.89  0.021545  ( 0.042997 -0.029809  0.137142)
 69:   3680.30   0.193604  978.39  0.016416  (-0.123085 -0.007261 -0.034838)
 70:   3684.53   0.061409  310.33  0.005201  (-0.032336  0.027651  0.058231)
 71:   3732.33   0.127288  643.26  0.010643  (-0.012211  0.084446  0.057986)
 72:   3860.77   0.024641  124.53  0.001992  (-0.013437  0.012812 -0.040584)
 73:   3861.47   0.040588  205.11  0.003280  (-0.016348 -0.004608 -0.054695)
 74:   3862.82   0.013845   69.97  0.001119  (-0.027812  0.007158 -0.017139)

* The epsilon (eps) is given for a Dirac delta lineshape.
** The dipole moment derivative (T) already includes vibrational overlap.

The first frequency considered to be a vibration is 7
The total number of vibrations considered is 68


--------------------------
THERMOCHEMISTRY AT 298.15K
--------------------------

Temperature         ... 298.15 K
Pressure            ... 1.00 atm
Total Mass          ... 179.57 AMU

Throughout the following assumptions are being made:
  (1) The electronic state is orbitally nondegenerate
  (2) There are no thermally accessible electronically excited states
  (3) Hindered rotations indicated by low frequency modes are not
      treated as such but are treated as vibrations and this may
      cause some error
  (4) All equations used are the standard statistical mechanics
      equations for an ideal gas
  (5) All vibrations are strictly harmonic

freq.      26.92  E(vib)   ...       0.55 
freq.      36.70  E(vib)   ...       0.54 
freq.      37.95  E(vib)   ...       0.54 
freq.      50.01  E(vib)   ...       0.52 
freq.      57.76  E(vib)   ...       0.51 
freq.      63.38  E(vib)   ...       0.51 
freq.      76.65  E(vib)   ...       0.49 
freq.     101.55  E(vib)   ...       0.46 
freq.     112.54  E(vib)   ...       0.45 
freq.     126.49  E(vib)   ...       0.43 
freq.     133.62  E(vib)   ...       0.42 
freq.     155.93  E(vib)   ...       0.40 
freq.     160.90  E(vib)   ...       0.39 
freq.     169.05  E(vib)   ...       0.38 
freq.     175.05  E(vib)   ...       0.38 
freq.     178.74  E(vib)   ...       0.37 
freq.     189.17  E(vib)   ...       0.36 
freq.     192.47  E(vib)   ...       0.36 
freq.     198.20  E(vib)   ...       0.35 
freq.     205.52  E(vib)   ...       0.35 
freq.     218.68  E(vib)   ...       0.33 
freq.     238.35  E(vib)   ...       0.32 
freq.     260.76  E(vib)   ...       0.30 
freq.     288.23  E(vib)   ...       0.27 
freq.     308.29  E(vib)   ...       0.26 
freq.     369.25  E(vib)   ...       0.21 
freq.     382.17  E(vib)   ...       0.21 
freq.     384.26  E(vib)   ...       0.20 
freq.     390.78  E(vib)   ...       0.20 
freq.     415.39  E(vib)   ...       0.18 
freq.     437.24  E(vib)   ...       0.17 
freq.     454.65  E(vib)   ...       0.16 
freq.     479.94  E(vib)   ...       0.15 
freq.     515.70  E(vib)   ...       0.13 
freq.     521.70  E(vib)   ...       0.13 
freq.     536.37  E(vib)   ...       0.12 
freq.     558.41  E(vib)   ...       0.12 
freq.     624.84  E(vib)   ...       0.09 
freq.     667.26  E(vib)   ...       0.08 
freq.     671.26  E(vib)   ...       0.08 
freq.     693.54  E(vib)   ...       0.07 
freq.     711.81  E(vib)   ...       0.07 
freq.     742.41  E(vib)   ...       0.06 
freq.     827.98  E(vib)   ...       0.04 
freq.    1603.21  E(vib)   ...       0.00 
freq.    1604.10  E(vib)   ...       0.00 
freq.    1621.16  E(vib)   ...       0.00 
freq.    1638.99  E(vib)   ...       0.00 
freq.    1642.30  E(vib)   ...       0.00 
freq.    1645.08  E(vib)   ...       0.00 
freq.    1653.35  E(vib)   ...       0.00 
freq.    1655.32  E(vib)   ...       0.00 
freq.    3488.91  E(vib)   ...       0.00 
freq.    3549.94  E(vib)   ...       0.00 
freq.    3568.53  E(vib)   ...       0.00 
freq.    3594.88  E(vib)   ...       0.00 
freq.    3602.52  E(vib)   ...       0.00 
freq.    3619.98  E(vib)   ...       0.00 
freq.    3627.75  E(vib)   ...       0.00 
freq.    3642.57  E(vib)   ...       0.00 
freq.    3650.11  E(vib)   ...       0.00 
freq.    3656.82  E(vib)   ...       0.00 
freq.    3680.30  E(vib)   ...       0.00 
freq.    3684.53  E(vib)   ...       0.00 
freq.    3732.33  E(vib)   ...       0.00 
freq.    3860.77  E(vib)   ...       0.00 
freq.    3861.47  E(vib)   ...       0.00 
freq.    3862.82  E(vib)   ...       0.00 

------------
INNER ENERGY
------------

The inner energy is: U= E(el) + E(ZPE) + E(vib) + E(rot) + E(trans)
    E(el)   - is the total energy from the electronic structure calculation
              = E(kin-el) + E(nuc-el) + E(el-el) + E(nuc-nuc)
    E(ZPE)  - the the zero temperature vibrational energy from the frequency calculation
    E(vib)  - the the finite temperature correction to E(ZPE) due to population
              of excited vibrational states
    E(rot)  - is the rotational thermal energy
    E(trans)- is the translational thermal energy

Summary of contributions to the inner energy U:
Electronic energy                ...  -1072.36490664 Eh
Zero point energy                ...      0.19568462 Eh     122.79 kcal/mol
Thermal vibrational correction   ...      0.02032688 Eh      12.76 kcal/mol
Thermal rotational correction    ...      0.00141627 Eh       0.89 kcal/mol
Thermal translational correction ...      0.00141627 Eh       0.89 kcal/mol
-----------------------------------------------------------------------
Total thermal energy                  -1072.14606260 Eh


Summary of corrections to the electronic energy:
(perhaps to be used in another calculation)
Total thermal correction                  0.02315943 Eh      14.53 kcal/mol
Non-thermal (ZPE) correction              0.19568462 Eh     122.79 kcal/mol
-----------------------------------------------------------------------
Total correction                          0.21884404 Eh     137.33 kcal/mol


--------
ENTHALPY
--------

The enthalpy is H = U + kB*T
                kB is Boltzmann's constant
Total free energy                 ...  -1072.14606260 Eh 
Thermal Enthalpy correction       ...      0.00094421 Eh       0.59 kcal/mol
-----------------------------------------------------------------------
Total Enthalpy                    ...  -1072.14511839 Eh


Note: Only C1 symmetry has been detected, increase convergence thresholds 
      if your molecule has a higher symmetry. Symmetry factor of 1.0 is   
      used for the rotational entropy correction. 
 

Note: Rotational entropy computed according to Herzberg 
Infrared and Raman Spectra, Chapter V,1, Van Nostrand Reinhold, 1945 
Point Group:  C1, Symmetry Number:   1  
Rotational constants in cm-1:     0.023538     0.017922     0.014616 

Vibrational entropy computed according to the QRRHO of S. Grimme
Chem.Eur.J. 2012 18 9955


-------
ENTROPY
-------

The entropy contributions are T*S = T*(S(el)+S(vib)+S(rot)+S(trans))
     S(el)   - electronic entropy
     S(vib)  - vibrational entropy
     S(rot)  - rotational entropy
     S(trans)- translational entropy
The entropies will be listed as multiplied by the temperature to get
units of energy

Electronic entropy                ...      0.00000000 Eh      0.00 kcal/mol
Vibrational entropy               ...      0.03746820 Eh     23.51 kcal/mol
Rotational entropy                ...      0.01517424 Eh      9.52 kcal/mol
Translational entropy             ...      0.01970034 Eh     12.36 kcal/mol
-----------------------------------------------------------------------
Final entropy term                ...      0.07234279 Eh     45.40 kcal/mol

In case the symmetry of your molecule has not been determined correctly
or in case you have a reason to use a different symmetry number we print 
out the resulting rotational entropy values for sn=1,12 :
 --------------------------------------------------------
|  sn= 1 | S(rot)=       0.01517424 Eh      9.52 kcal/mol|
|  sn= 2 | S(rot)=       0.01451979 Eh      9.11 kcal/mol|
|  sn= 3 | S(rot)=       0.01413695 Eh      8.87 kcal/mol|
|  sn= 4 | S(rot)=       0.01386533 Eh      8.70 kcal/mol|
|  sn= 5 | S(rot)=       0.01365464 Eh      8.57 kcal/mol|
|  sn= 6 | S(rot)=       0.01348250 Eh      8.46 kcal/mol|
|  sn= 7 | S(rot)=       0.01333695 Eh      8.37 kcal/mol|
|  sn= 8 | S(rot)=       0.01321087 Eh      8.29 kcal/mol|
|  sn= 9 | S(rot)=       0.01309967 Eh      8.22 kcal/mol|
|  sn=10 | S(rot)=       0.01300019 Eh      8.16 kcal/mol|
|  sn=11 | S(rot)=       0.01291020 Eh      8.10 kcal/mol|
|  sn=12 | S(rot)=       0.01282804 Eh      8.05 kcal/mol|
 --------------------------------------------------------


-------------------
GIBBS FREE ENERGY
-------------------

The Gibbs free energy is G = H - T*S

Total enthalpy                    ...  -1072.14511839 Eh 
Total entropy correction          ...     -0.07234279 Eh    -45.40 kcal/mol
-----------------------------------------------------------------------
Final Gibbs free energy         ...  -1072.21746118 Eh

For completeness - the Gibbs free energy minus the electronic energy
G-E(el)                           ...      0.14744546 Eh     92.52 kcal/mol


Timings for individual modules:

Sum of individual times         ...      465.925 sec (=   7.765 min)
GTO integral calculation        ...        1.024 sec (=   0.017 min)   0.2 %
SCF iterations                  ...       62.246 sec (=   1.037 min)  13.4 %
Analytical frequency calculation...      402.655 sec (=   6.711 min)  86.4 %
                             ****ORCA TERMINATED NORMALLY****
TOTAL RUN TIME: 0 days 0 hours 7 minutes 46 seconds 429 msec
