
                                 *****************
                                 * O   R   C   A *
                                 *****************

                                            #,                                       
                                            ###                                      
                                            ####                                     
                                            #####                                    
                                            ######                                   
                                           ########,                                 
                                     ,,################,,,,,                         
                               ,,#################################,,                 
                          ,,##########################################,,             
                       ,#########################################, ''#####,          
                    ,#############################################,,   '####,        
                  ,##################################################,,,,####,       
                ,###########''''           ''''###############################       
              ,#####''   ,,,,##########,,,,          '''####'''          '####       
            ,##' ,,,,###########################,,,                        '##       
           ' ,,###''''                  '''############,,,                           
         ,,##''                                '''############,,,,        ,,,,,,###''
      ,#''                                            '''#######################'''  
     '                                                          ''''####''''         
             ,#######,   #######,   ,#######,      ##                                
            ,#'     '#,  ##    ##  ,#'     '#,    #''#        ######   ,####,        
            ##       ##  ##   ,#'  ##            #'  '#       #        #'  '#        
            ##       ##  #######   ##           ,######,      #####,   #    #        
            '#,     ,#'  ##    ##  '#,     ,#' ,#      #,         ##   #,  ,#        
             '#######'   ##     ##  '#######'  #'      '#     #####' # '####'        



                  #######################################################
                  #                        -***-                        #
                  #          Department of theory and spectroscopy      #
                  #    Directorship and core code : Frank Neese         #
                  #        Max Planck Institute fuer Kohlenforschung    #
                  #                Kaiser Wilhelm Platz 1               #
                  #                 D-45470 Muelheim/Ruhr               #
                  #                      Germany                        #
                  #                                                     #
                  #                  All rights reserved                #
                  #                        -***-                        #
                  #######################################################


                         Program Version 5.0.4 -  RELEASE  -


 With contributions from (in alphabetic order):
   Daniel Aravena         : Magnetic Suceptibility
   Michael Atanasov       : Ab Initio Ligand Field Theory (pilot matlab implementation)
   Alexander A. Auer      : GIAO ZORA, VPT2 properties, NMR spectrum
   Ute Becker             : Parallelization
   Giovanni Bistoni       : ED, misc. LED, open-shell LED, HFLD
   Martin Brehm           : Molecular dynamics
   Dmytro Bykov           : SCF Hessian
   Vijay G. Chilkuri      : MRCI spin determinant printing, contributions to CSF-ICE
   Dipayan Datta          : RHF DLPNO-CCSD density
   Achintya Kumar Dutta   : EOM-CC, STEOM-CC
   Dmitry Ganyushin       : Spin-Orbit,Spin-Spin,Magnetic field MRCI
   Miquel Garcia          : C-PCM and meta-GGA Hessian, CC/C-PCM, Gaussian charge scheme
   Yang Guo               : DLPNO-NEVPT2, F12-NEVPT2, CIM, IAO-localization
   Andreas Hansen         : Spin unrestricted coupled pair/coupled cluster methods
   Benjamin Helmich-Paris : MC-RPA, TRAH-SCF, COSX integrals
   Lee Huntington         : MR-EOM, pCC
   Robert Izsak           : Overlap fitted RIJCOSX, COSX-SCS-MP3, EOM
   Marcus Kettner         : VPT2
   Christian Kollmar      : KDIIS, OOCD, Brueckner-CCSD(T), CCSD density, CASPT2, CASPT2-K
   Simone Kossmann        : Meta GGA functionals, TD-DFT gradient, OOMP2, MP2 Hessian
   Martin Krupicka        : Initial AUTO-CI
   Lucas Lang             : DCDCAS
   Marvin Lechner         : AUTO-CI (C++ implementation), FIC-MRCC
   Dagmar Lenk            : GEPOL surface, SMD
   Dimitrios Liakos       : Extrapolation schemes; Compound Job, initial MDCI parallelization
   Dimitrios Manganas     : Further ROCIS development; embedding schemes
   Dimitrios Pantazis     : SARC Basis sets
   Anastasios Papadopoulos: AUTO-CI, single reference methods and gradients
   Taras Petrenko         : DFT Hessian,TD-DFT gradient, ASA, ECA, R-Raman, ABS, FL, XAS/XES, NRVS
   Peter Pinski           : DLPNO-MP2, DLPNO-MP2 Gradient
   Christoph Reimann      : Effective Core Potentials
   Marius Retegan         : Local ZFS, SOC
   Christoph Riplinger    : Optimizer, TS searches, QM/MM, DLPNO-CCSD(T), (RO)-DLPNO pert. Triples
   Tobias Risthaus        : Range-separated hybrids, TD-DFT gradient, RPA, STAB
   Michael Roemelt        : Original ROCIS implementation
   Masaaki Saitow         : Open-shell DLPNO-CCSD energy and density
   Barbara Sandhoefer     : DKH picture change effects
   Avijit Sen             : IP-ROCIS
   Kantharuban Sivalingam : CASSCF convergence, NEVPT2, FIC-MRCI
   Bernardo de Souza      : ESD, SOC TD-DFT
   Georgi Stoychev        : AutoAux, RI-MP2 NMR, DLPNO-MP2 response
   Willem Van den Heuvel  : Paramagnetic NMR
   Boris Wezisla          : Elementary symmetry handling
   Frank Wennmohs         : Technical directorship


 We gratefully acknowledge several colleagues who have allowed us to
 interface, adapt or use parts of their codes:
   Stefan Grimme, W. Hujo, H. Kruse, P. Pracht,  : VdW corrections, initial TS optimization,
                  C. Bannwarth, S. Ehlert          DFT functionals, gCP, sTDA/sTD-DF
   Ed Valeev, F. Pavosevic, A. Kumar             : LibInt (2-el integral package), F12 methods
   Garnet Chan, S. Sharma, J. Yang, R. Olivares  : DMRG
   Ulf Ekstrom                                   : XCFun DFT Library
   Mihaly Kallay                                 : mrcc  (arbitrary order and MRCC methods)
   Jiri Pittner, Ondrej Demel                    : Mk-CCSD
   Frank Weinhold                                : gennbo (NPA and NBO analysis)
   Christopher J. Cramer and Donald G. Truhlar   : smd solvation model
   Lars Goerigk                                  : TD-DFT with DH, B97 family of functionals
   V. Asgeirsson, H. Jonsson                     : NEB implementation
   FAccTs GmbH                                   : IRC, NEB, NEB-TS, DLPNO-Multilevel, CI-OPT
                                                   MM, QMMM, 2- and 3-layer-ONIOM, Crystal-QMMM,
                                                   LR-CPCM, SF, NACMEs, symmetry and pop. for TD-DFT,
                                                   nearIR, NL-DFT gradient (VV10), updates on ESD,
                                                   ML-optimized integration grids
   S Lehtola, MJT Oliveira, MAL Marques          : LibXC Library
   Liviu Ungur et al                             : ANISO software


 Your calculation uses the libint2 library for the computation of 2-el integrals
 For citations please refer to: http://libint.valeyev.net

 Your ORCA version has been built with support for libXC version: 5.1.0
 For citations please refer to: https://tddft.org/programs/libxc/

 This ORCA versions uses:
   CBLAS   interface :  Fast vector & matrix operations
   LAPACKE interface :  Fast linear algebra routines
   SCALAPACK package :  Parallel linear algebra routines
   Shared memory     :  Shared parallel matrices
   BLAS/LAPACK       :  OpenBLAS 0.3.15  USE64BITINT DYNAMIC_ARCH NO_AFFINITY Zen SINGLE_THREADED
        Core in use  :  Zen
   Copyright (c) 2011-2014, The OpenBLAS Project


Your calculation utilizes the atom-pairwise dispersion correction
based on tight binding partial charges (D4)
Cite in your paper:
E.Caldeweyher, C.Bannwarth, S.Grimme, J.Chem.Phys., (2017), 147, 034112.
E.Caldeweyher, S.Ehlert, A.Hansen, H.Neugebauer, S.Grimme, J.Chem.Phys., (2018), in progress.
   

================================================================================

----- Orbital basis set information -----
Your calculation utilizes the basis: def2-TZVPD
   F. Weigend and R. Ahlrichs, Phys. Chem. Chem. Phys. 7, 3297 (2005).
   D. Rappoport and F. Furche, J. Chem. Phys. 133 134105 (2010).

----- AuxJ basis set information -----
Your calculation utilizes the auxiliary basis: def2/J
   F. Weigend, Phys. Chem. Chem. Phys. 8, 1057 (2006).

================================================================================
                                        WARNINGS
                       Please study these warnings very carefully!
================================================================================


INFO   : the flag for use of the SHARK integral package has been found!

================================================================================
                                       INPUT FILE
================================================================================
NAME = mg_16w.inp
|  1> # avogadro generated ORCA file
|  2> # H32O16Mg | Geometry Optimization | wB97X-D3/def2-TZVP
|  3> # 
|  4> ! wB97X-D3BJ def2-TZVPD def2/J RIJCOSX D4 TightSCF CPCM(Water) FREQ
|  5> 
|  6> %maxcore 1536
|  7> 
|  8> %pal
|  9>    nprocs 16
| 10> end
| 11> 
| 12> * xyz 2 1
| 13>    Mg    -2.510129    1.384300   -0.204287
| 14>    O     -4.452081    1.334533    0.556757
| 15>    H     -4.985745    0.530902    0.534623
| 16>    H     -5.066158    2.075270    0.485437
| 17>    O     -2.547374    3.465069   -0.242879
| 18>    H     -3.045860    3.977515   -0.890594
| 19>    H     -2.521330    3.990380    0.566046
| 20>    O      0.818939    0.649180    1.621573
| 21>    H      0.809454    0.663676    0.653439
| 22>    H      1.042375   -0.258231    1.862444
| 23>    O     -2.516445   -0.703834   -0.176282
| 24>    H     -1.943559   -1.191663    0.428134
| 25>    H     -2.544939   -1.212922   -0.995797
| 26>    O     -0.569057    1.386501   -0.963542
| 27>    H     -0.196687    2.233465   -1.237919
| 28>    H     -0.378041    0.743248   -1.689769
| 29>    O     -1.760793    1.457087    1.711775
| 30>    H     -0.846826    1.117641    1.853468
| 31>    H     -2.291051    1.201595    2.474631
| 32>    O     -3.267859    1.300431   -2.147075
| 33>    H     -2.749240    1.568575   -2.915708
| 34>    H     -4.186085    1.521116   -2.345849
| 35>    O     -0.167124   -0.394477   -2.955305
| 36>    H     -0.994656   -0.821642   -3.210132
| 37>    H      0.435748   -1.118076   -2.743417
| 38>    O     -0.464542    3.787312    0.931213
| 39>    H      0.207361    3.853534    1.599540
| 40>    H     -0.605018    4.640523    0.537770
| 41>    O     -3.715201    3.922976    2.702882
| 42>    H     -3.043298    3.989199    3.371209
| 43>    H     -3.855677    4.776187    2.309439
| 44>    O     -3.131854   -0.590461    1.799054
| 45>    H     -3.954621   -0.749673    2.246497
| 46>    H     -3.111165   -1.085621    0.988567
| 47>    O     -4.987907    3.366973   -1.368053
| 48>    H     -5.810674    3.207761   -0.920609
| 49>    H     -4.967219    2.871813   -2.178540
| 50>    O     -1.548299    3.026051   -3.626550
| 51>    H     -2.371066    2.866839   -3.179106
| 52>    H     -1.527611    2.530891   -4.437037
| 53>    O     -0.730674    4.965201    3.043376
| 54>    H     -1.553441    4.805989    3.490819
| 55>    H     -0.709986    4.470041    2.232889
| 56>    O     -4.181661    1.643557    3.849598
| 57>    H     -5.004428    1.484345    4.297041
| 58>    H     -4.160973    1.148397    3.039111
| 59>    O      0.376580    4.245773   -1.617420
| 60>    H      0.514466    4.080569   -2.542728
| 61>    H     -0.554203    4.326912   -1.445491
| 62> *
| 63> 
| 64> 
| 65> 
| 66>                          ****END OF INPUT****
================================================================================

                       ****************************
                       * Single Point Calculation *
                       ****************************

---------------------------------
CARTESIAN COORDINATES (ANGSTROEM)
---------------------------------
  Mg    -2.510129    1.384300   -0.204287
  O     -4.452081    1.334533    0.556757
  H     -4.985745    0.530902    0.534623
  H     -5.066158    2.075270    0.485437
  O     -2.547374    3.465069   -0.242879
  H     -3.045860    3.977515   -0.890594
  H     -2.521330    3.990380    0.566046
  O      0.818939    0.649180    1.621573
  H      0.809454    0.663676    0.653439
  H      1.042375   -0.258231    1.862444
  O     -2.516445   -0.703834   -0.176282
  H     -1.943559   -1.191663    0.428134
  H     -2.544939   -1.212922   -0.995797
  O     -0.569057    1.386501   -0.963542
  H     -0.196687    2.233465   -1.237919
  H     -0.378041    0.743248   -1.689769
  O     -1.760793    1.457087    1.711775
  H     -0.846826    1.117641    1.853468
  H     -2.291051    1.201595    2.474631
  O     -3.267859    1.300431   -2.147075
  H     -2.749240    1.568575   -2.915708
  H     -4.186085    1.521116   -2.345849
  O     -0.167124   -0.394477   -2.955305
  H     -0.994656   -0.821642   -3.210132
  H      0.435748   -1.118076   -2.743417
  O     -0.464542    3.787312    0.931213
  H      0.207361    3.853534    1.599540
  H     -0.605018    4.640523    0.537770
  O     -3.715201    3.922976    2.702882
  H     -3.043298    3.989199    3.371209
  H     -3.855677    4.776187    2.309439
  O     -3.131854   -0.590461    1.799054
  H     -3.954621   -0.749673    2.246497
  H     -3.111165   -1.085621    0.988567
  O     -4.987907    3.366973   -1.368053
  H     -5.810674    3.207761   -0.920609
  H     -4.967219    2.871813   -2.178540
  O     -1.548299    3.026051   -3.626550
  H     -2.371066    2.866839   -3.179106
  H     -1.527611    2.530891   -4.437037
  O     -0.730674    4.965201    3.043376
  H     -1.553441    4.805989    3.490819
  H     -0.709986    4.470041    2.232889
  O     -4.181661    1.643557    3.849598
  H     -5.004428    1.484345    4.297041
  H     -4.160973    1.148397    3.039111
  O      0.376580    4.245773   -1.617420
  H      0.514466    4.080569   -2.542728
  H     -0.554203    4.326912   -1.445491

----------------------------
CARTESIAN COORDINATES (A.U.)
----------------------------
  NO LB      ZA    FRAG     MASS         X           Y           Z
   0 Mg   12.0000    0    24.305   -4.743456    2.615948   -0.386046
   1 O     8.0000    0    15.999   -8.413214    2.521902    1.052118
   2 H     1.0000    0     1.008   -9.421693    1.003259    1.010291
   3 H     1.0000    0     1.008   -9.573651    3.921692    0.917343
   4 O     8.0000    0    15.999   -4.813839    6.548031   -0.458975
   5 H     1.0000    0     1.008   -5.755841    7.516414   -1.682979
   6 H     1.0000    0     1.008   -4.764623    7.540725    1.069672
   7 O     8.0000    0    15.999    1.547570    1.226772    3.064329
   8 H     1.0000    0     1.008    1.529646    1.254166    1.234821
   9 H     1.0000    0     1.008    1.969803   -0.487986    3.519509
  10 O     8.0000    0    15.999   -4.755392   -1.330054   -0.333125
  11 H     1.0000    0     1.008   -3.672794   -2.251917    0.809056
  12 H     1.0000    0     1.008   -4.809238   -2.292090   -1.881784
  13 O     8.0000    0    15.999   -1.075362    2.620107   -1.820830
  14 H     1.0000    0     1.008   -0.371685    4.220637   -2.339328
  15 H     1.0000    0     1.008   -0.714394    1.404535   -3.193201
  16 O     8.0000    0    15.999   -3.327417    2.753495    3.234786
  17 H     1.0000    0     1.008   -1.600269    2.112035    3.502547
  18 H     1.0000    0     1.008   -4.329459    2.270685    4.676375
  19 O     8.0000    0    15.999   -6.175359    2.457458   -4.057384
  20 H     1.0000    0     1.008   -5.195311    2.964177   -5.509890
  21 H     1.0000    0     1.008   -7.910554    2.874493   -4.433012
  22 O     8.0000    0    15.999   -0.315819   -0.745453   -5.584717
  23 H     1.0000    0     1.008   -1.879627   -1.552678   -6.066270
  24 H     1.0000    0     1.008    0.823444   -2.112857   -5.184307
  25 O     8.0000    0    15.999   -0.877857    7.156982    1.759738
  26 H     1.0000    0     1.008    0.391856    7.282124    3.022693
  27 H     1.0000    0     1.008   -1.143318    8.769318    1.016238
  28 O     8.0000    0    15.999   -7.020712    7.413350    5.107707
  29 H     1.0000    0     1.008   -5.751000    7.538494    6.370662
  30 H     1.0000    0     1.008   -7.286174    9.025685    4.364207
  31 O     8.0000    0    15.999   -5.918346   -1.115810    3.399719
  32 H     1.0000    0     1.008   -7.473151   -1.416677    4.245264
  33 H     1.0000    0     1.008   -5.879250   -2.051526    1.868121
  34 O     8.0000    0    15.999   -9.425778    6.362657   -2.585246
  35 H     1.0000    0     1.008  -10.980583    6.061790   -1.739699
  36 H     1.0000    0     1.008   -9.386684    5.426940   -4.116844
  37 O     8.0000    0    15.999   -2.925861    5.718408   -6.853186
  38 H     1.0000    0     1.008   -4.480665    5.417541   -6.007640
  39 H     1.0000    0     1.008   -2.886766    4.782691   -8.384785
  40 O     8.0000    0    15.999   -1.380774    9.382870    5.751147
  41 H     1.0000    0     1.008   -2.935578    9.082003    6.596692
  42 H     1.0000    0     1.008   -1.341679    8.447153    4.219549
  43 O     8.0000    0    15.999   -7.902194    3.105873    7.274686
  44 H     1.0000    0     1.008   -9.456998    2.805006    8.120231
  45 H     1.0000    0     1.008   -7.863099    2.170156    5.743087
  46 O     8.0000    0    15.999    0.711633    8.023348   -3.056481
  47 H     1.0000    0     1.008    0.972200    7.711158   -4.805060
  48 H     1.0000    0     1.008   -1.047292    8.176679   -2.731582

--------------------------------
INTERNAL COORDINATES (ANGSTROEM)
--------------------------------
 Mg     0   0   0     0.000000000000     0.00000000     0.00000000
 O      1   0   0     2.086346638152     0.00000000     0.00000000
 H      2   1   0     0.964940393503   121.75419304     0.00000000
 H      2   1   3     0.964815219354   123.17125335   216.29467002
 O      1   2   3     2.081460103833    90.79951197   163.42188437
 H      5   1   2     0.964688507414   123.55397038   286.10082808
 H      5   1   2     0.964878019380   121.88558427    71.09555579
 O      1   2   3     3.867409973435   128.64373896   270.00459496
 H      8   1   2     0.968288976079    61.09776173   164.15283022
 H      8   1   2     0.965058136932   119.72647968    72.17490083
 O      1   2   3     2.088331337177    88.19154770   344.13281417
 H     11   1   2     0.965139473492   120.79743095   247.52851427
 H     11   1   2     0.965187720086   121.07120337   109.51239007
 O      1   2   3     2.084282492516   178.69313801   343.16447343
 H     14   1   5     0.965033767453   117.63562790   353.30241824
 H     14   1   5     0.988770544562   116.53705538   224.66933204
 O      1   2   3     2.058663638409    90.00786312   252.75871512
 H     17   1   2     0.985208693757   117.34497837   154.65219406
 H     17   1   2     0.963534631118   121.81615473    18.15604997
 O      1   2   3     2.087010775009    90.03813317    72.48061501
 H     20   1   2     0.965227206717   122.34740090   160.60238811
 H     20   1   2     0.965065779819   121.87002974    18.49634153
 O     16  14   1     1.714784395722   175.90514455     9.82721060
 H     23  16  14     0.965513308131   112.51347561   356.31549185
 H     23  16  14     0.965373858010   114.33937036   236.43124934
 O      7   5   1     2.098799758780    96.87145718    77.62376013
 H     26   7   5     0.949999986117   143.97551434   199.59977809
 H     26   7   5     0.949999953340    72.31018481   100.60750345
 O      7   5   1     2.448660726755   134.70535867   312.35192352
 H     29   7   5     0.950000055825   105.49536463   132.06901233
 H     29   7   5     0.949999953340    71.69727945   237.89013719
 O     12  11   1     1.911258877868    85.47796407    72.13732445
 H     32  12  11     0.949999597622   145.44532622    82.94157440
 H     32  12  11     0.950000335521    37.86652580    58.45393855
 O      6   5   1     2.090998608477   118.56350110    42.99913887
 H     35   6   5     0.950000068615   138.22474603    57.50910480
 H     35   6   5     0.950000313744   109.07288021   261.09765583
 O     21  20   1     2.017868163439   143.22138673   313.11869614
 H     38  21  20     0.950000068615    36.63891622   313.12905214
 H     38  21  20     0.950000313744    86.38973781   183.00013092
 O     27  26   7     2.049481782063   102.10523425   342.37010622
 H     41  27  26     0.949999597622   129.59079406    55.52291385
 H     41  27  26     0.950000313744    26.65622557     8.62428436
 O     19  17   1     2.379132369717   147.73916412   294.84820997
 H     44  19  17     0.949999597622   158.32628801   123.25957701
 H     44  19  17     0.950000313744    52.61368437    85.16046922
 O     15  14   1     2.126508770063   170.15722479    22.46318951
 H     47  15  14     0.949999897619    92.77370582   219.03285285
 H     47  15  14     0.950000058658    77.54908975   328.36631089

---------------------------
INTERNAL COORDINATES (A.U.)
---------------------------
 Mg     0   0   0     0.000000000000     0.00000000     0.00000000
 O      1   0   0     3.942623766535     0.00000000     0.00000000
 H      2   1   0     1.823473079278   121.75419304     0.00000000
 H      2   1   3     1.823236534419   123.17125335   216.29467002
 O      1   2   3     3.933389554928    90.79951197   163.42188437
 H      5   1   2     1.822997083554   123.55397038   286.10082808
 H      5   1   2     1.823355209268   121.88558427    71.09555579
 O      1   2   3     7.308345697388   128.64373896   270.00459496
 H      8   1   2     1.829800983285    61.09776173   164.15283022
 H      8   1   2     1.823695582113   119.72647968    72.17490083
 O      1   2   3     3.946374304151    88.19154770   344.13281417
 H     11   1   2     1.823849285937   120.79743095   247.52851427
 H     11   1   2     1.823940458787   121.07120337   109.51239007
 O      1   2   3     3.938723096583   178.69313801   343.16447343
 H     14   1   5     1.823649530473   117.63562790   353.30241824
 H     14   1   5     1.868505538511   116.53705538   224.66933204
 O      1   2   3     3.890310478456    90.00786312   252.75871512
 H     17   1   2     1.861774615959   117.34497837   154.65219406
 H     17   1   2     1.820816573362   121.81615473    18.15604997
 O      1   2   3     3.943878803310    90.03813317    72.48061501
 H     20   1   2     1.824015077704   122.34740090   160.60238811
 H     20   1   2     1.823710025076   121.87002974    18.49634153
 O     16  14   1     3.240472886635   175.90514455     9.82721060
 H     23  16  14     1.824555731024   112.51347561   356.31549185
 H     23  16  14     1.824292208486   114.33937036   236.43124934
 O      7   5   1     3.966156754035    96.87145718    77.62376013
 H     26   7   5     1.795239800990   143.97551434   199.59977809
 H     26   7   5     1.795239739051    72.31018481   100.60750345
 O      7   5   1     4.627298168456   134.70535867   312.35192352
 H     29   7   5     1.795239932719   105.49536463   132.06901233
 H     29   7   5     1.795239739051    71.69727945   237.89013719
 O     12  11   1     3.611755850196    85.47796407    72.13732445
 H     32  12  11     1.795239066841   145.44532622    82.94157440
 H     32  12  11     1.795240461268    37.86652580    58.45393855
 O      6   5   1     3.951414716433   118.56350110    42.99913887
 H     35   6   5     1.795239956889   138.22474603    57.50910480
 H     35   6   5     1.795240420115   109.07288021   261.09765583
 O     21  20   1     3.813218203259   143.22138673   313.11869614
 H     38  21  20     1.795239956889    36.63891622   313.12905214
 H     38  21  20     1.795240420115    86.38973781   183.00013092
 O     27  26   7     3.872959284561   102.10523425   342.37010622
 H     41  27  26     1.795239066841   129.59079406    55.52291385
 H     41  27  26     1.795240420115    26.65622557     8.62428436
 O     19  17   1     4.495908615111   147.73916412   294.84820997
 H     44  19  17     1.795239066841   158.32628801   123.25957701
 H     44  19  17     1.795240420115    52.61368437    85.16046922
 O     15  14   1     4.018519196800   170.15722479    22.46318951
 H     47  15  14     1.795239633753    92.77370582   219.03285285
 H     47  15  14     1.795239938074    77.54908975   328.36631089

---------------------
BASIS SET INFORMATION
---------------------
There are 3 groups of distinct atoms

 Group   1 Type Mg  : 14s9p3d contracted to 5s5p3d pattern {73211/51111/111}
 Group   2 Type O   : 12s7p3d1f contracted to 6s4p3d1f pattern {621111/4111/111/1}
 Group   3 Type H   : 5s2p contracted to 3s2p pattern {311/11}

Atom   0Mg   basis set group =>   1
Atom   1O    basis set group =>   2
Atom   2H    basis set group =>   3
Atom   3H    basis set group =>   3
Atom   4O    basis set group =>   2
Atom   5H    basis set group =>   3
Atom   6H    basis set group =>   3
Atom   7O    basis set group =>   2
Atom   8H    basis set group =>   3
Atom   9H    basis set group =>   3
Atom  10O    basis set group =>   2
Atom  11H    basis set group =>   3
Atom  12H    basis set group =>   3
Atom  13O    basis set group =>   2
Atom  14H    basis set group =>   3
Atom  15H    basis set group =>   3
Atom  16O    basis set group =>   2
Atom  17H    basis set group =>   3
Atom  18H    basis set group =>   3
Atom  19O    basis set group =>   2
Atom  20H    basis set group =>   3
Atom  21H    basis set group =>   3
Atom  22O    basis set group =>   2
Atom  23H    basis set group =>   3
Atom  24H    basis set group =>   3
Atom  25O    basis set group =>   2
Atom  26H    basis set group =>   3
Atom  27H    basis set group =>   3
Atom  28O    basis set group =>   2
Atom  29H    basis set group =>   3
Atom  30H    basis set group =>   3
Atom  31O    basis set group =>   2
Atom  32H    basis set group =>   3
Atom  33H    basis set group =>   3
Atom  34O    basis set group =>   2
Atom  35H    basis set group =>   3
Atom  36H    basis set group =>   3
Atom  37O    basis set group =>   2
Atom  38H    basis set group =>   3
Atom  39H    basis set group =>   3
Atom  40O    basis set group =>   2
Atom  41H    basis set group =>   3
Atom  42H    basis set group =>   3
Atom  43O    basis set group =>   2
Atom  44H    basis set group =>   3
Atom  45H    basis set group =>   3
Atom  46O    basis set group =>   2
Atom  47H    basis set group =>   3
Atom  48H    basis set group =>   3
---------------------------------
AUXILIARY/J BASIS SET INFORMATION
---------------------------------
There are 3 groups of distinct atoms

 Group   1 Type Mg  : 14s5p5d2f1g contracted to 8s4p4d1f1g pattern {71111111/2111/2111/2/1}
 Group   2 Type O   : 12s5p4d2f1g contracted to 6s4p3d1f1g pattern {711111/2111/211/2/1}
 Group   3 Type H   : 5s2p1d contracted to 3s1p1d pattern {311/2/1}

Atom   0Mg   basis set group =>   1
Atom   1O    basis set group =>   2
Atom   2H    basis set group =>   3
Atom   3H    basis set group =>   3
Atom   4O    basis set group =>   2
Atom   5H    basis set group =>   3
Atom   6H    basis set group =>   3
Atom   7O    basis set group =>   2
Atom   8H    basis set group =>   3
Atom   9H    basis set group =>   3
Atom  10O    basis set group =>   2
Atom  11H    basis set group =>   3
Atom  12H    basis set group =>   3
Atom  13O    basis set group =>   2
Atom  14H    basis set group =>   3
Atom  15H    basis set group =>   3
Atom  16O    basis set group =>   2
Atom  17H    basis set group =>   3
Atom  18H    basis set group =>   3
Atom  19O    basis set group =>   2
Atom  20H    basis set group =>   3
Atom  21H    basis set group =>   3
Atom  22O    basis set group =>   2
Atom  23H    basis set group =>   3
Atom  24H    basis set group =>   3
Atom  25O    basis set group =>   2
Atom  26H    basis set group =>   3
Atom  27H    basis set group =>   3
Atom  28O    basis set group =>   2
Atom  29H    basis set group =>   3
Atom  30H    basis set group =>   3
Atom  31O    basis set group =>   2
Atom  32H    basis set group =>   3
Atom  33H    basis set group =>   3
Atom  34O    basis set group =>   2
Atom  35H    basis set group =>   3
Atom  36H    basis set group =>   3
Atom  37O    basis set group =>   2
Atom  38H    basis set group =>   3
Atom  39H    basis set group =>   3
Atom  40O    basis set group =>   2
Atom  41H    basis set group =>   3
Atom  42H    basis set group =>   3
Atom  43O    basis set group =>   2
Atom  44H    basis set group =>   3
Atom  45H    basis set group =>   3
Atom  46O    basis set group =>   2
Atom  47H    basis set group =>   3
Atom  48H    basis set group =>   3


           ************************************************************
           *        Program running with 16 parallel MPI-processes    *
           *              working on a common directory               *
           ************************************************************
------------------------------------------------------------------------------
                           ORCA GTO INTEGRAL CALCULATION
                           -- RI-GTO INTEGRALS CHOSEN --
------------------------------------------------------------------------------
------------------------------------------------------------------------------
                   ___                                                        
                  /   \      - P O W E R E D   B Y -                         
                 /     \                                                     
                 |  |  |   _    _      __       _____    __    __             
                 |  |  |  | |  | |    /  \     |  _  \  |  |  /  |          
                  \  \/   | |  | |   /    \    | | | |  |  | /  /          
                 / \  \   | |__| |  /  /\  \   | |_| |  |  |/  /          
                |  |  |   |  __  | /  /__\  \  |    /   |      \           
                |  |  |   | |  | | |   __   |  |    \   |  |\   \          
                \     /   | |  | | |  |  |  |  | |\  \  |  | \   \       
                 \___/    |_|  |_| |__|  |__|  |_| \__\ |__|  \__/        
                                                                              
                      - O R C A' S   B I G   F R I E N D -                    
                                      &                                       
                       - I N T E G R A L  F E E D E R -                       
                                                                              
 v1 FN, 2020, v2 2021                                                         
------------------------------------------------------------------------------


Reading SHARK input file mg_16w.SHARKINP.tmp ... ok
----------------------
SHARK INTEGRAL PACKAGE
----------------------

Number of atoms                             ...     49
Number of basis functions                   ...    963
Number of shells                            ...    397
Maximum angular momentum                    ...      3
Integral batch strategy                     ... SHARK/LIBINT Hybrid
RI-J (if used) integral strategy            ... SPLIT-RIJ (Revised 2003 algorithm where possible)
Printlevel                                  ...      1
Contraction scheme used                     ... SEGMENTED contraction
Coulomb Range Separation                    ... NOT USED
Exchange Range Separation                   ... Long Range
   Mu parameter                             ...  0.300000
   Scaling (regular/separated)              ...  0.167000  0.833000
Finite Nucleus Model                        ... NOT USED
Auxiliary Coulomb fitting basis             ... AVAILABLE
   # of basis functions in Aux-J            ...   1192
   # of shells in Aux-J                     ...    418
   Maximum angular momentum in Aux-J        ...      4
Auxiliary J/K fitting basis                 ... NOT available
Auxiliary Correlation fitting basis         ... NOT available
Auxiliary 'external' fitting basis          ... NOT available
Integral threshold                          ...     2.500000e-11
Primitive cut-off                           ...     2.500000e-12
Primitive pair pre-selection threshold      ...     2.500000e-12

Calculating pre-screening integrals         ... done (  0.0 sec) Dimension = 397
Organizing shell pair data                  ... done (  0.5 sec)
Shell pair information
Total number of shell pairs                 ...     79003
Shell pairs after pre-screening             ...     62337
Total number of primitive shell pairs       ...    191754
Primitive shell pairs kept                  ...    109657
          la=0 lb=0:  14572 shell pairs
          la=1 lb=0:  21532 shell pairs
          la=1 lb=1:   7830 shell pairs
          la=2 lb=0:   7652 shell pairs
          la=2 lb=1:   5663 shell pairs
          la=2 lb=2:   1030 shell pairs
          la=3 lb=0:   1924 shell pairs
          la=3 lb=1:   1556 shell pairs
          la=3 lb=2:    517 shell pairs
          la=3 lb=3:     61 shell pairs

Calculating one electron integrals          ... done (  0.1 sec)
Calculating RI/J V-Matrix + Cholesky decomp.... done (  0.1 sec)
Calculating Nuclear repulsion               ... done (  0.0 sec) ENN=   2013.267698437178 Eh

SHARK setup successfully completed in   1.1 seconds

Maximum memory used throughout the entire GTOINT-calculation: 83.5 MB


           ************************************************************
           *        Program running with 16 parallel MPI-processes    *
           *              working on a common directory               *
           ************************************************************
-------------------------------------------------------------------------------
                                 ORCA SCF
-------------------------------------------------------------------------------

------------
SCF SETTINGS
------------
Hamiltonian:
 Density Functional     Method          .... DFT(GTOs)
 Exchange Functional    Exchange        .... WB97X-V
 Correlation Functional Correlation     .... WB97X-V
 Gradients option       PostSCFGGA      .... off
 Hybrid DFT is turned on
   Fraction HF Exchange ScalHFX         ....  0.167000
   Scaling of DF-GGA-X  ScalDFX         ....  0.000000
   Scaling of DF-GGA-C  ScalDFC         ....  1.000000
   Scaling of DF-LDA-C  ScalLDAC        ....  1.000000
   Perturbative correction              ....  0.000000
   Density functional embedding theory  .... OFF
 Long-range corrected/Screened/Range-Separated Hybrid DFT is turned on
   Amount of maximum screened exact exchange              ....  0.833000
   Range separation parameter mu (erf(mu*r12)/r12)        ....  0.300000
 RI-approximation to the Coulomb term is turned on
   Number of AuxJ basis functions       .... 1192
   RIJ-COSX (HFX calculated with COS-X)).... on


General Settings:
 Integral files         IntName         .... mg_16w
 Hartree-Fock type      HFTyp           .... RHF
 Total Charge           Charge          ....    2
 Multiplicity           Mult            ....    1
 Number of Electrons    NEL             ....  170
 Basis Dimension        Dim             ....  963
 Nuclear Repulsion      ENuc            ....   2013.2676984372 Eh

Convergence Acceleration:
 DIIS                   CNVDIIS         .... on
   Start iteration      DIISMaxIt       ....    12
   Startup error        DIISStart       ....  0.200000
   # of expansion vecs  DIISMaxEq       ....     5
   Bias factor          DIISBfac        ....   1.050
   Max. coefficient     DIISMaxC        ....  10.000
 Trust-Rad. Augm. Hess. CNVTRAH         .... auto
   Auto Start mean grad. ratio tolernc. ....  1.125000
   Auto Start start iteration           ....    20
   Auto Start num. interpolation iter.  ....    10
   Max. Number of Micro iterations      ....    16
   Max. Number of Macro iterations      .... Maxiter - #DIIS iter
   Number of Davidson start vectors     ....     2
   Converg. threshold I  (grad. norm)   ....   1.000e-05
   Converg. threshold II (energy diff.) ....   1.000e-08
   Grad. Scal. Fac. for Micro threshold ....   0.100
   Minimum threshold for Micro iter.    ....   0.010
   NR start threshold (gradient norm)   ....   0.001
   Initial trust radius                 ....   0.400
   Minimum AH scaling param. (alpha)    ....   1.000
   Maximum AH scaling param. (alpha)    .... 1000.000
   Orbital update algorithm             .... Taylor
   White noise on init. David. guess    .... on
   Maximum white noise                  ....   0.010
   Quad. conv. algorithm                .... NR
 SOSCF                  CNVSOSCF        .... on
   Start iteration      SOSCFMaxIt      ....   150
   Startup grad/error   SOSCFStart      ....  0.003300
 Level Shifting         CNVShift        .... on
   Level shift para.    LevelShift      ....    0.2500
   Turn off err/grad.   ShiftErr        ....    0.0010
 Zerner damping         CNVZerner       .... off
 Static damping         CNVDamp         .... on
   Fraction old density DampFac         ....    0.7000
   Max. Damping (<1)    DampMax         ....    0.9800
   Min. Damping (>=0)   DampMin         ....    0.0000
   Turn off err/grad.   DampErr         ....    0.1000
 Fernandez-Rico         CNVRico         .... off

SCF Procedure:
 Maximum # iterations   MaxIter         ....   125
 SCF integral mode      SCFMode         .... Direct
   Integral package                     .... SHARK and LIBINT hybrid scheme
 Reset frequency        DirectResetFreq ....    20
 Integral Threshold     Thresh          ....  2.500e-11 Eh
 Primitive CutOff       TCut            ....  2.500e-12 Eh

Convergence Tolerance:
 Convergence Check Mode ConvCheckMode   .... Total+1el-Energy
 Convergence forced     ConvForced      .... 0
 Energy Change          TolE            ....  1.000e-08 Eh
 1-El. energy change                    ....  1.000e-05 Eh
 Orbital Gradient       TolG            ....  1.000e-05
 Orbital Rotation angle TolX            ....  1.000e-05
 DIIS Error             TolErr          ....  5.000e-07


Diagonalization of the overlap matrix:
Smallest eigenvalue                        ... 1.850e-06
Time for diagonalization                   ...    0.121 sec
Threshold for overlap eigenvalues          ... 1.000e-08
Number of eigenvalues below threshold      ... 0
Time for construction of square roots      ...    0.146 sec
Total time needed                          ...    0.275 sec

Time for model grid setup =    0.263 sec

------------------------------
INITIAL GUESS: MODEL POTENTIAL
------------------------------
Loading Hartree-Fock densities                     ... done
Calculating cut-offs                               ... done
Initializing the effective Hamiltonian             ... done
Setting up the integral package (SHARK)            ... done
Starting the Coulomb interaction                   ... done (   0.3 sec)
Reading the grid                                   ... done
Mapping shells                                     ... done
Starting the XC term evaluation                    ... done (   0.3 sec)
  promolecular density results
     # of electrons  =    171.987155678
     EX              =   -107.510946461
     EC              =     -7.328966697
     EX+EC           =   -114.839913159
Transforming the Hamiltonian                       ... done (   0.1 sec)
Diagonalizing the Hamiltonian                      ... done (   0.1 sec)
Back transforming the eigenvectors                 ... done (   0.0 sec)
Now organizing SCF variables                       ... done
                      ------------------
                      INITIAL GUESS DONE (   1.3 sec)
                      ------------------
-------------------
DFT GRID GENERATION
-------------------

General Integration Accuracy     IntAcc      ... 4.388
Radial Grid Type                 RadialGrid  ... OptM3 with GC (2021)
Angular Grid (max. ang.)         AngularGrid ... 4 (Lebedev-302)
Angular grid pruning method      GridPruning ... 4 (adaptive)
Weight generation scheme         WeightScheme... Becke
Basis function cutoff            BFCut       ... 1.0000e-11
Integration weight cutoff        WCut        ... 1.0000e-14
Angular grids for H and He will be reduced by one unit
Partially contracted basis set               ... off
Rotationally invariant grid construction     ... off

Total number of grid points                  ...   214617
Total number of batches                      ...     3378
Average number of points per batch           ...       63
Average number of grid points per atom       ...     4380
Time for grid setup =    0.954 sec

--------------------
COSX GRID GENERATION
--------------------

GRIDX 1
-------
General Integration Accuracy     IntAcc      ... 3.816
Radial Grid Type                 RadialGrid  ... OptM3 with GC (2021)
Angular Grid (max. ang.)         AngularGrid ... 1 (Lebedev-50)
Angular grid pruning method      GridPruning ... 4 (adaptive)
Weight generation scheme         WeightScheme... Becke
Basis function cutoff            BFCut       ... 1.0000e-11
Integration weight cutoff        WCut        ... 1.0000e-14
Angular grids for H and He will be reduced by one unit
Partially contracted basis set               ... on
Rotationally invariant grid construction     ... off

Total number of grid points                  ...    26738
Total number of batches                      ...      440
Average number of points per batch           ...       60
Average number of grid points per atom       ...      546
UseSFitting                                  ... on

GRIDX 2
-------
General Integration Accuracy     IntAcc      ... 4.020
Radial Grid Type                 RadialGrid  ... OptM3 with GC (2021)
Angular Grid (max. ang.)         AngularGrid ... 2 (Lebedev-110)
Angular grid pruning method      GridPruning ... 4 (adaptive)
Weight generation scheme         WeightScheme... Becke
Basis function cutoff            BFCut       ... 1.0000e-11
Integration weight cutoff        WCut        ... 1.0000e-14
Angular grids for H and He will be reduced by one unit
Partially contracted basis set               ... on
Rotationally invariant grid construction     ... off

Total number of grid points                  ...    60194
Total number of batches                      ...      966
Average number of points per batch           ...       62
Average number of grid points per atom       ...     1228
UseSFitting                                  ... on

GRIDX 3
-------
General Integration Accuracy     IntAcc      ... 4.338
Radial Grid Type                 RadialGrid  ... OptM3 with GC (2021)
Angular Grid (max. ang.)         AngularGrid ... 3 (Lebedev-194)
Angular grid pruning method      GridPruning ... 4 (adaptive)
Weight generation scheme         WeightScheme... Becke
Basis function cutoff            BFCut       ... 1.0000e-11
Integration weight cutoff        WCut        ... 1.0000e-14
Angular grids for H and He will be reduced by one unit
Partially contracted basis set               ... on
Rotationally invariant grid construction     ... off

Total number of grid points                  ...   134154
Total number of batches                      ...     2122
Average number of points per batch           ...       63
Average number of grid points per atom       ...     2738
UseSFitting                                  ... on

Time for X-Grid setup             =    1.993 sec


--------------------
CPCM SOLVATION MODEL
--------------------
CPCM parameters:
  Epsilon                                         ...      80.4000
  Refrac                                          ...       1.3300
  Rsolv                                           ...       1.3000
  Surface type                                    ... GAUSSIAN VDW
  Epsilon function type                           ...         CPCM
Radii:
 Radius for Mg used is    3.9231 Bohr (=   2.0760 Ang.)
 Radius for O  used is    3.4469 Bohr (=   1.8240 Ang.)
 Radius for H  used is    2.4944 Bohr (=   1.3200 Ang.)
Calculating surface                               ...        done! (  0.0s)
GEPOL surface points                              ...         2852
GEPOL Volume                                      ...    2529.6673
GEPOL Surface-area                                ...    1387.8697
Calculating surface distance matrix               ...        done! (  0.1s)
Performing Cholesky decomposition & store         ...        done! (  0.3s)
Overall time for CPCM initialization              ...                 0.4s
--------------
SCF ITERATIONS
--------------
ITER       Energy         Delta-E        Max-DP      RMS-DP      [F,P]     Damp
               ***  Starting incremental Fock matrix formation  ***
  0  -1423.4447622878   0.000000000000 0.21002892  0.00088808  0.3397858 0.7000
  1  -1423.5007016891  -0.055939401324 0.16544660  0.00070702  0.2344002 0.7000
                               ***Turning on DIIS***
  2  -1423.5369172049  -0.036215515750 0.12212742  0.00051209  0.1626045 0.7000
  3  -1423.5615530851  -0.024635880191 0.09020325  0.00038940  0.1127511 0.7000
  4  -1423.5788208044  -0.017267719367 0.21021728  0.00098559  0.0782079 0.0000
                      *** Initiating the SOSCF procedure ***
                           *** Shutting down DIIS ***
                      *** Re-Reading the Fockian *** 
                      *** Removing any level shift *** 
ITER      Energy       Delta-E        Grad      Rot      Max-DP    RMS-DP
  5  -1423.62050928  -0.0416884732  0.000958  0.000958  0.017559  0.000092
               *** Restarting incremental Fock matrix formation ***
  6  -1423.62065156  -0.0001422796  0.000246  0.000493  0.008521  0.000063
  7  -1423.62068295  -0.0000313923  0.000106  0.000302  0.004823  0.000033
  8  -1423.62068766  -0.0000047113  0.000058  0.000084  0.002267  0.000016
  9  -1423.62068918  -0.0000015218  0.000031  0.000008  0.006609  0.000018
 10  -1423.62068920  -0.0000000188  0.000014  0.000003  0.003229  0.000012
 11  -1423.62068915   0.0000000469  0.000007  0.000002  0.012006  0.000029
 12  -1423.62068916  -0.0000000036  0.000004  0.000000  0.002156  0.000008
                  ***Gradient check signals convergence***
              ***Rediagonalizing the Fockian in SOSCF/NRSCF***

               *****************************************************
               *                     SUCCESS                       *
               *           SCF CONVERGED AFTER  13 CYCLES          *
               *****************************************************

Old exchange energy                            =    -49.107282604 Eh
New exchange energy                            =    -49.107255698 Eh
Exchange energy change after final integration =      0.000026905 Eh
Total energy after final integration           =  -1423.620662284 Eh
Final COS-X integration done in                =    36.576 sec

----------------
TOTAL SCF ENERGY
----------------

Total Energy       :        -1423.62066228 Eh          -38738.68766 eV

Components:
Nuclear Repulsion  :         2013.26769844 Eh           54783.79923 eV
Electronic Energy  :        -3436.88836072 Eh          -93522.48689 eV
One Electron Energy:        -5934.42536206 Eh         -161483.92379 eV
Two Electron Energy:         2497.53700134 Eh           67961.43690 eV
Max COSX asymmetry :            0.00000445 Eh               0.00012 eV
CPCM Dielectric    :           -0.36965899 Eh             -10.05893 eV

Virial components:
Potential Energy   :        -2842.74658143 Eh          -77355.06714 eV
Kinetic Energy     :         1419.12591915 Eh           38616.37948 eV
Virial Ratio       :            2.00316726


DFT components:
N(Alpha)           :       85.000066102646 electrons
N(Beta)            :       85.000066102646 electrons
N(Total)           :      170.000132205293 electrons
E(X)               :     -109.742873389881 Eh       
E(C)               :       -7.349096179509 Eh       
E(XC)              :     -117.091969569390 Eh       
DFET-embed. en.    :        0.000000000000 Eh       
CPCM Solvation Model Properties:
Surface-charge          :           -2.02759425
Charge-correction       :            0.00604324 Eh               0.16444 eV
Free-energy (cav+disp)  :  This term is not implemented in the current solvation scheme

---------------
SCF CONVERGENCE
---------------

  Last Energy change         ...   -3.1662e-08  Tolerance :   1.0000e-08
  Last MAX-Density change    ...    4.4409e-15  Tolerance :   1.0000e-07
  Last RMS-Density change    ...    1.5815e-17  Tolerance :   5.0000e-09
  Last Orbital Gradient      ...    4.1934e-07  Tolerance :   1.0000e-05
  Last Orbital Rotation      ...    4.3088e-07  Tolerance :   1.0000e-05

             **** THE GBW FILE WAS UPDATED (mg_16w.gbw) ****
             **** DENSITY mg_16w.scfp WAS UPDATED ****
             **** ENERGY FILE WAS UPDATED (mg_16w.en.tmp) ****
             **** THE GBW FILE WAS UPDATED (mg_16w.gbw) ****
             **** DENSITY mg_16w.scfp WAS UPDATED ****
----------------
ORBITAL ENERGIES
----------------

  NO   OCC          E(Eh)            E(eV) 
   0   2.0000     -46.839287     -1274.5618 
   1   2.0000     -19.278286      -524.5888 
   2   2.0000     -19.274868      -524.4958 
   3   2.0000     -19.254769      -523.9489 
   4   2.0000     -19.243055      -523.6301 
   5   2.0000     -19.241975      -523.6007 
   6   2.0000     -19.238326      -523.5015 
   7   2.0000     -19.234960      -523.4099 
   8   2.0000     -19.234776      -523.4049 
   9   2.0000     -19.233814      -523.3787 
  10   2.0000     -19.233617      -523.3733 
  11   2.0000     -19.221795      -523.0516 
  12   2.0000     -19.218925      -522.9735 
  13   2.0000     -19.215099      -522.8694 
  14   2.0000     -19.210926      -522.7559 
  15   2.0000     -19.201082      -522.4880 
  16   2.0000     -19.191847      -522.2367 
  17   2.0000      -3.200116       -87.0796 
  18   2.0000      -1.936011       -52.6815 
  19   2.0000      -1.935407       -52.6651 
  20   2.0000      -1.935352       -52.6636 
  21   2.0000      -1.241038       -33.7704 
  22   2.0000      -1.210447       -32.9379 
  23   2.0000      -1.201418       -32.6923 
  24   2.0000      -1.185178       -32.2503 
  25   2.0000      -1.174723       -31.9658 
  26   2.0000      -1.173478       -31.9320 
  27   2.0000      -1.167933       -31.7811 
  28   2.0000      -1.165311       -31.7097 
  29   2.0000      -1.163452       -31.6591 
  30   2.0000      -1.158300       -31.5190 
  31   2.0000      -1.152347       -31.3570 
  32   2.0000      -1.151395       -31.3310 
  33   2.0000      -1.147634       -31.2287 
  34   2.0000      -1.141637       -31.0655 
  35   2.0000      -1.132205       -30.8089 
  36   2.0000      -1.130482       -30.7620 
  37   2.0000      -0.759618       -20.6702 
  38   2.0000      -0.725385       -19.7387 
  39   2.0000      -0.717177       -19.5154 
  40   2.0000      -0.695466       -18.9246 
  41   2.0000      -0.685883       -18.6638 
  42   2.0000      -0.680391       -18.5144 
  43   2.0000      -0.678017       -18.4498 
  44   2.0000      -0.675232       -18.3740 
  45   2.0000      -0.667754       -18.1705 
  46   2.0000      -0.665078       -18.0977 
  47   2.0000      -0.662324       -18.0228 
  48   2.0000      -0.660466       -17.9722 
  49   2.0000      -0.657476       -17.8908 
  50   2.0000      -0.648474       -17.6459 
  51   2.0000      -0.646476       -17.5915 
  52   2.0000      -0.640836       -17.4380 
  53   2.0000      -0.622741       -16.9457 
  54   2.0000      -0.589475       -16.0404 
  55   2.0000      -0.581963       -15.8360 
  56   2.0000      -0.571997       -15.5648 
  57   2.0000      -0.563608       -15.3366 
  58   2.0000      -0.548998       -14.9390 
  59   2.0000      -0.534683       -14.5495 
  60   2.0000      -0.533246       -14.5104 
  61   2.0000      -0.527457       -14.3528 
  62   2.0000      -0.525479       -14.2990 
  63   2.0000      -0.522678       -14.2228 
  64   2.0000      -0.518273       -14.1029 
  65   2.0000      -0.516456       -14.0535 
  66   2.0000      -0.508726       -13.8431 
  67   2.0000      -0.502392       -13.6708 
  68   2.0000      -0.497306       -13.5324 
  69   2.0000      -0.493107       -13.4181 
  70   2.0000      -0.481643       -13.1062 
  71   2.0000      -0.476611       -12.9692 
  72   2.0000      -0.469334       -12.7712 
  73   2.0000      -0.459020       -12.4906 
  74   2.0000      -0.456324       -12.4172 
  75   2.0000      -0.452023       -12.3002 
  76   2.0000      -0.446342       -12.1456 
  77   2.0000      -0.445275       -12.1165 
  78   2.0000      -0.443522       -12.0689 
  79   2.0000      -0.436369       -11.8742 
  80   2.0000      -0.432650       -11.7730 
  81   2.0000      -0.430334       -11.7100 
  82   2.0000      -0.426747       -11.6124 
  83   2.0000      -0.417937       -11.3726 
  84   2.0000      -0.413464       -11.2509 
  85   0.0000       0.023653         0.6436 
  86   0.0000       0.037304         1.0151 
  87   0.0000       0.039120         1.0645 
  88   0.0000       0.040577         1.1042 
  89   0.0000       0.064749         1.7619 
  90   0.0000       0.066373         1.8061 
  91   0.0000       0.069414         1.8889 
  92   0.0000       0.073048         1.9877 
  93   0.0000       0.076473         2.0809 
  94   0.0000       0.091222         2.4823 
  95   0.0000       0.093168         2.5352 
  96   0.0000       0.096523         2.6265 
  97   0.0000       0.101517         2.7624 
  98   0.0000       0.102977         2.8021 
  99   0.0000       0.104708         2.8493 
 100   0.0000       0.106270         2.8918 
 101   0.0000       0.108705         2.9580 
 102   0.0000       0.120552         3.2804 
 103   0.0000       0.123722         3.3666 
 104   0.0000       0.125246         3.4081 
 105   0.0000       0.129539         3.5249 
 106   0.0000       0.131382         3.5751 
 107   0.0000       0.135138         3.6773 
 108   0.0000       0.136282         3.7084 
 109   0.0000       0.139358         3.7921 
 110   0.0000       0.143094         3.8938 
 111   0.0000       0.144540         3.9331 
 112   0.0000       0.145273         3.9531 
 113   0.0000       0.152059         4.1377 
 114   0.0000       0.160622         4.3707 
 115   0.0000       0.161828         4.4036 
 116   0.0000       0.167643         4.5618 
 117   0.0000       0.169307         4.6071 
 118   0.0000       0.170953         4.6519 
 119   0.0000       0.172455         4.6927 
 120   0.0000       0.173857         4.7309 
 121   0.0000       0.175389         4.7726 
 122   0.0000       0.176684         4.8078 
 123   0.0000       0.184133         5.0105 
 124   0.0000       0.188144         5.1197 
 125   0.0000       0.189854         5.1662 
 126   0.0000       0.192547         5.2395 
 127   0.0000       0.195902         5.3308 
 128   0.0000       0.199474         5.4280 
 129   0.0000       0.203523         5.5381 
 130   0.0000       0.207889         5.6569 
 131   0.0000       0.209718         5.7067 
 132   0.0000       0.210211         5.7201 
 133   0.0000       0.213750         5.8164 
 134   0.0000       0.220542         6.0013 
 135   0.0000       0.222033         6.0418 
 136   0.0000       0.226827         6.1723 
 137   0.0000       0.228365         6.2141 
 138   0.0000       0.231571         6.3014 
 139   0.0000       0.235087         6.3971 
 140   0.0000       0.236635         6.4392 
 141   0.0000       0.240694         6.5496 
 142   0.0000       0.242747         6.6055 
 143   0.0000       0.249435         6.7875 
 144   0.0000       0.250504         6.8166 
 145   0.0000       0.255103         6.9417 
 146   0.0000       0.256767         6.9870 
 147   0.0000       0.261311         7.1106 
 148   0.0000       0.263636         7.1739 
 149   0.0000       0.266748         7.2586 
 150   0.0000       0.270413         7.3583 
 151   0.0000       0.271776         7.3954 
 152   0.0000       0.278263         7.5719 
 153   0.0000       0.280333         7.6282 
 154   0.0000       0.285224         7.7613 
 155   0.0000       0.287626         7.8267 
 156   0.0000       0.289572         7.8796 
 157   0.0000       0.292645         7.9633 
 158   0.0000       0.296212         8.0603 
 159   0.0000       0.299545         8.1510 
 160   0.0000       0.302616         8.2346 
 161   0.0000       0.304473         8.2851 
 162   0.0000       0.309317         8.4170 
 163   0.0000       0.309882         8.4323 
 164   0.0000       0.312966         8.5162 
 165   0.0000       0.315905         8.5962 
 166   0.0000       0.318500         8.6668 
 167   0.0000       0.321145         8.7388 
 168   0.0000       0.322331         8.7711 
 169   0.0000       0.325582         8.8595 
 170   0.0000       0.328848         8.9484 
 171   0.0000       0.330551         8.9947 
 172   0.0000       0.331673         9.0253 
 173   0.0000       0.335989         9.1427 
 174   0.0000       0.338573         9.2130 
 175   0.0000       0.340195         9.2572 
 176   0.0000       0.341802         9.3009 
 177   0.0000       0.345891         9.4122 
 178   0.0000       0.349100         9.4995 
 179   0.0000       0.352388         9.5890 
 180   0.0000       0.354018         9.6333 
 181   0.0000       0.354739         9.6529 
 182   0.0000       0.360321         9.8048 
 183   0.0000       0.361232         9.8296 
 184   0.0000       0.364738         9.9250 
 185   0.0000       0.366894         9.9837 
 186   0.0000       0.368739        10.0339 
 187   0.0000       0.371594        10.1116 
 188   0.0000       0.373880        10.1738 
 189   0.0000       0.374895        10.2014 
 190   0.0000       0.375906        10.2289 
 191   0.0000       0.379207        10.3187 
 192   0.0000       0.381156        10.3718 
 193   0.0000       0.383513        10.4359 
 194   0.0000       0.387037        10.5318 
 195   0.0000       0.388761        10.5787 
 196   0.0000       0.392183        10.6718 
 197   0.0000       0.393624        10.7111 
 198   0.0000       0.394567        10.7367 
 199   0.0000       0.397312        10.8114 
 200   0.0000       0.398539        10.8448 
 201   0.0000       0.402779        10.9602 
 202   0.0000       0.405763        11.0414 
 203   0.0000       0.410085        11.1590 
 204   0.0000       0.411101        11.1866 
 205   0.0000       0.416231        11.3262 
 206   0.0000       0.417984        11.3739 
 207   0.0000       0.421127        11.4594 
 208   0.0000       0.421748        11.4764 
 209   0.0000       0.423350        11.5199 
 210   0.0000       0.424004        11.5377 
 211   0.0000       0.429097        11.6763 
 212   0.0000       0.433546        11.7974 
 213   0.0000       0.436958        11.8902 
 214   0.0000       0.439168        11.9504 
 215   0.0000       0.441036        12.0012 
 216   0.0000       0.443283        12.0624 
 217   0.0000       0.446324        12.1451 
 218   0.0000       0.447841        12.1864 
 219   0.0000       0.452008        12.2998 
 220   0.0000       0.452614        12.3163 
 221   0.0000       0.455210        12.3869 
 222   0.0000       0.459265        12.4972 
 223   0.0000       0.460447        12.5294 
 224   0.0000       0.465740        12.6734 
 225   0.0000       0.466746        12.7008 
 226   0.0000       0.470617        12.8061 
 227   0.0000       0.473958        12.8971 
 228   0.0000       0.477812        13.0019 
 229   0.0000       0.481493        13.1021 
 230   0.0000       0.483829        13.1657 
 231   0.0000       0.484772        13.1913 
 232   0.0000       0.485956        13.2235 
 233   0.0000       0.488414        13.2904 
 234   0.0000       0.490209        13.3393 
 235   0.0000       0.494881        13.4664 
 236   0.0000       0.500471        13.6185 
 237   0.0000       0.502676        13.6785 
 238   0.0000       0.505918        13.7667 
 239   0.0000       0.507654        13.8140 
 240   0.0000       0.510039        13.8789 
 241   0.0000       0.513392        13.9701 
 242   0.0000       0.517503        14.0820 
 243   0.0000       0.519771        14.1437 
 244   0.0000       0.522948        14.2302 
 245   0.0000       0.526315        14.3218 
 246   0.0000       0.531811        14.4713 
 247   0.0000       0.533702        14.5228 
 248   0.0000       0.534098        14.5335 
 249   0.0000       0.539594        14.6831 
 250   0.0000       0.541068        14.7232 
 251   0.0000       0.542807        14.7705 
 252   0.0000       0.544134        14.8066 
 253   0.0000       0.552682        15.0392 
 254   0.0000       0.553708        15.0672 
 255   0.0000       0.554699        15.0941 
 256   0.0000       0.555366        15.1123 
 257   0.0000       0.560383        15.2488 
 258   0.0000       0.564230        15.3535 
 259   0.0000       0.566996        15.4288 
 260   0.0000       0.568526        15.4704 
 261   0.0000       0.570726        15.5302 
 262   0.0000       0.574788        15.6408 
 263   0.0000       0.579548        15.7703 
 264   0.0000       0.582560        15.8523 
 265   0.0000       0.585769        15.9396 
 266   0.0000       0.588634        16.0176 
 267   0.0000       0.590842        16.0776 
 268   0.0000       0.594733        16.1835 
 269   0.0000       0.596664        16.2361 
 270   0.0000       0.599308        16.3080 
 271   0.0000       0.602820        16.4036 
 272   0.0000       0.607204        16.5229 
 273   0.0000       0.615775        16.7561 
 274   0.0000       0.617939        16.8150 
 275   0.0000       0.619268        16.8511 
 276   0.0000       0.620960        16.8972 
 277   0.0000       0.627795        17.0832 
 278   0.0000       0.629946        17.1417 
 279   0.0000       0.636108        17.3094 
 280   0.0000       0.636899        17.3309 
 281   0.0000       0.639798        17.4098 
 282   0.0000       0.643332        17.5060 
 283   0.0000       0.645825        17.5738 
 284   0.0000       0.648201        17.6384 
 285   0.0000       0.649624        17.6772 
 286   0.0000       0.654734        17.8162 
 287   0.0000       0.657403        17.8889 
 288   0.0000       0.664114        18.0715 
 289   0.0000       0.666171        18.1274 
 290   0.0000       0.669443        18.2165 
 291   0.0000       0.673162        18.3177 
 292   0.0000       0.674260        18.3475 
 293   0.0000       0.677892        18.4464 
 294   0.0000       0.684266        18.6198 
 295   0.0000       0.685455        18.6522 
 296   0.0000       0.689252        18.7555 
 297   0.0000       0.690636        18.7932 
 298   0.0000       0.699051        19.0222 
 299   0.0000       0.699705        19.0399 
 300   0.0000       0.704483        19.1700 
 301   0.0000       0.708299        19.2738 
 302   0.0000       0.711351        19.3568 
 303   0.0000       0.713307        19.4101 
 304   0.0000       0.717130        19.5141 
 305   0.0000       0.720129        19.5957 
 306   0.0000       0.724369        19.7111 
 307   0.0000       0.731359        19.9013 
 308   0.0000       0.733709        19.9652 
 309   0.0000       0.734251        19.9800 
 310   0.0000       0.740668        20.1546 
 311   0.0000       0.742572        20.2064 
 312   0.0000       0.743717        20.2376 
 313   0.0000       0.750460        20.4211 
 314   0.0000       0.755416        20.5559 
 315   0.0000       0.757140        20.6028 
 316   0.0000       0.759697        20.6724 
 317   0.0000       0.761704        20.7270 
 318   0.0000       0.763622        20.7792 
 319   0.0000       0.768839        20.9212 
 320   0.0000       0.772417        21.0185 
 321   0.0000       0.774600        21.0779 
 322   0.0000       0.775163        21.0933 
 323   0.0000       0.779571        21.2132 
 324   0.0000       0.784678        21.3522 
 325   0.0000       0.788201        21.4481 
 326   0.0000       0.789501        21.4834 
 327   0.0000       0.792746        21.5717 
 328   0.0000       0.797718        21.7070 
 329   0.0000       0.799863        21.7654 
 330   0.0000       0.804570        21.8935 
 331   0.0000       0.805857        21.9285 
 332   0.0000       0.807957        21.9856 
 333   0.0000       0.814900        22.1746 
 334   0.0000       0.819540        22.3008 
 335   0.0000       0.824954        22.4481 
 336   0.0000       0.826383        22.4870 
 337   0.0000       0.829834        22.5809 
 338   0.0000       0.834346        22.7037 
 339   0.0000       0.837801        22.7977 
 340   0.0000       0.839320        22.8391 
 341   0.0000       0.846003        23.0209 
 342   0.0000       0.846588        23.0368 
 343   0.0000       0.854987        23.2654 
 344   0.0000       0.857371        23.3302 
 345   0.0000       0.859311        23.3830 
 346   0.0000       0.862568        23.4717 
 347   0.0000       0.865906        23.5625 
 348   0.0000       0.866929        23.5903 
 349   0.0000       0.870078        23.6760 
 350   0.0000       0.874011        23.7830 
 351   0.0000       0.879131        23.9224 
 352   0.0000       0.884826        24.0773 
 353   0.0000       0.890118        24.2213 
 354   0.0000       0.893521        24.3139 
 355   0.0000       0.896913        24.4062 
 356   0.0000       0.898928        24.4611 
 357   0.0000       0.903886        24.5960 
 358   0.0000       0.906787        24.6749 
 359   0.0000       0.908306        24.7163 
 360   0.0000       0.914374        24.8814 
 361   0.0000       0.918730        24.9999 
 362   0.0000       0.920332        25.0435 
 363   0.0000       0.923763        25.1369 
 364   0.0000       0.931370        25.3439 
 365   0.0000       0.937538        25.5117 
 366   0.0000       0.937920        25.5221 
 367   0.0000       0.940709        25.5980 
 368   0.0000       0.944549        25.7025 
 369   0.0000       0.949002        25.8237 
 370   0.0000       0.960505        26.1367 
 371   0.0000       0.963139        26.2084 
 372   0.0000       0.966567        26.3016 
 373   0.0000       0.972244        26.4561 
 374   0.0000       0.973781        26.4979 
 375   0.0000       0.980371        26.6772 
 376   0.0000       0.987194        26.8629 
 377   0.0000       0.991800        26.9883 
 378   0.0000       0.995116        27.0785 
 379   0.0000       0.996779        27.1237 
 380   0.0000       1.002858        27.2892 
 381   0.0000       1.009129        27.4598 
 382   0.0000       1.012852        27.5611 
 383   0.0000       1.017211        27.6797 
 384   0.0000       1.021036        27.7838 
 385   0.0000       1.030237        28.0342 
 386   0.0000       1.031959        28.0810 
 387   0.0000       1.037872        28.2419 
 388   0.0000       1.038953        28.2714 
 389   0.0000       1.041570        28.3426 
 390   0.0000       1.047222        28.4964 
 391   0.0000       1.049888        28.5689 
 392   0.0000       1.055843        28.7310 
 393   0.0000       1.062027        28.8992 
 394   0.0000       1.065318        28.9888 
 395   0.0000       1.072814        29.1927 
 396   0.0000       1.076047        29.2807 
 397   0.0000       1.079378        29.3714 
 398   0.0000       1.085570        29.5399 
 399   0.0000       1.087842        29.6017 
 400   0.0000       1.089536        29.6478 
 401   0.0000       1.091943        29.7133 
 402   0.0000       1.100646        29.9501 
 403   0.0000       1.103600        30.0305 
 404   0.0000       1.111685        30.2505 
 405   0.0000       1.118705        30.4415 
 406   0.0000       1.122115        30.5343 
 407   0.0000       1.124852        30.6088 
 408   0.0000       1.129929        30.7469 
 409   0.0000       1.136466        30.9248 
 410   0.0000       1.138811        30.9886 
 411   0.0000       1.143882        31.1266 
 412   0.0000       1.151887        31.3444 
 413   0.0000       1.159077        31.5401 
 414   0.0000       1.161356        31.6021 
 415   0.0000       1.164844        31.6970 
 416   0.0000       1.172783        31.9131 
 417   0.0000       1.176518        32.0147 
 418   0.0000       1.186303        32.2809 
 419   0.0000       1.189183        32.3593 
 420   0.0000       1.195538        32.5323 
 421   0.0000       1.201519        32.6950 
 422   0.0000       1.204483        32.7756 
 423   0.0000       1.209611        32.9152 
 424   0.0000       1.215238        33.0683 
 425   0.0000       1.227192        33.3936 
 426   0.0000       1.232580        33.5402 
 427   0.0000       1.237022        33.6611 
 428   0.0000       1.241130        33.7729 
 429   0.0000       1.253531        34.1103 
 430   0.0000       1.256345        34.1869 
 431   0.0000       1.260481        34.2994 
 432   0.0000       1.263753        34.3885 
 433   0.0000       1.276367        34.7317 
 434   0.0000       1.280418        34.8419 
 435   0.0000       1.281039        34.8588 
 436   0.0000       1.293557        35.1995 
 437   0.0000       1.299076        35.3496 
 438   0.0000       1.305063        35.5126 
 439   0.0000       1.305824        35.5333 
 440   0.0000       1.317484        35.8506 
 441   0.0000       1.319986        35.9186 
 442   0.0000       1.336905        36.3790 
 443   0.0000       1.341100        36.4932 
 444   0.0000       1.343699        36.5639 
 445   0.0000       1.353801        36.8388 
 446   0.0000       1.356491        36.9120 
 447   0.0000       1.369978        37.2790 
 448   0.0000       1.378944        37.5230 
 449   0.0000       1.384489        37.6739 
 450   0.0000       1.387785        37.7636 
 451   0.0000       1.392776        37.8994 
 452   0.0000       1.410798        38.3898 
 453   0.0000       1.418127        38.5892 
 454   0.0000       1.425226        38.7824 
 455   0.0000       1.434946        39.0469 
 456   0.0000       1.447345        39.3843 
 457   0.0000       1.455630        39.6097 
 458   0.0000       1.465380        39.8750 
 459   0.0000       1.469849        39.9966 
 460   0.0000       1.474159        40.1139 
 461   0.0000       1.485300        40.4171 
 462   0.0000       1.494657        40.6717 
 463   0.0000       1.497076        40.7375 
 464   0.0000       1.511097        41.1190 
 465   0.0000       1.533454        41.7274 
 466   0.0000       1.538023        41.8517 
 467   0.0000       1.542113        41.9630 
 468   0.0000       1.560319        42.4584 
 469   0.0000       1.566809        42.6350 
 470   0.0000       1.569326        42.7035 
 471   0.0000       1.592907        43.3452 
 472   0.0000       1.607219        43.7346 
 473   0.0000       1.659370        45.1538 
 474   0.0000       1.701005        46.2867 
 475   0.0000       1.721905        46.8554 
 476   0.0000       1.731241        47.1095 
 477   0.0000       1.734865        47.2081 
 478   0.0000       1.742355        47.4119 
 479   0.0000       1.751112        47.6502 
 480   0.0000       1.758373        47.8478 
 481   0.0000       1.760103        47.8948 
 482   0.0000       1.769640        48.1544 
 483   0.0000       1.779081        48.4112 
 484   0.0000       1.788404        48.6649 
 485   0.0000       1.792220        48.7688 
 486   0.0000       1.798139        48.9298 
 487   0.0000       1.801515        49.0217 
 488   0.0000       1.803565        49.0775 
 489   0.0000       1.816105        49.4187 
 490   0.0000       1.824211        49.6393 
 491   0.0000       1.828972        49.7689 
 492   0.0000       1.835132        49.9365 
 493   0.0000       1.837977        50.0139 
 494   0.0000       1.852447        50.4076 
 495   0.0000       1.854382        50.4603 
 496   0.0000       1.860703        50.6323 
 497   0.0000       1.863542        50.7095 
 498   0.0000       1.871317        50.9211 
 499   0.0000       1.874689        51.0129 
 500   0.0000       1.879219        51.1362 
 501   0.0000       1.886697        51.3396 
 502   0.0000       1.889947        51.4281 
 503   0.0000       1.901175        51.7336 
 504   0.0000       1.908617        51.9361 
 505   0.0000       1.912673        52.0465 
 506   0.0000       1.914488        52.0959 
 507   0.0000       1.918781        52.2127 
 508   0.0000       1.928565        52.4789 
 509   0.0000       1.935810        52.6761 
 510   0.0000       1.937197        52.7138 
 511   0.0000       1.948228        53.0140 
 512   0.0000       1.950712        53.0816 
 513   0.0000       1.954347        53.1805 
 514   0.0000       1.957722        53.2723 
 515   0.0000       1.959664        53.3252 
 516   0.0000       1.968417        53.5634 
 517   0.0000       1.972068        53.6627 
 518   0.0000       1.981004        53.9059 
 519   0.0000       1.986409        54.0529 
 520   0.0000       1.990994        54.1777 
 521   0.0000       1.993982        54.2590 
 522   0.0000       1.997137        54.3449 
 523   0.0000       2.003406        54.5154 
 524   0.0000       2.011501        54.7357 
 525   0.0000       2.016297        54.8662 
 526   0.0000       2.020162        54.9714 
 527   0.0000       2.021958        55.0203 
 528   0.0000       2.029715        55.2314 
 529   0.0000       2.036266        55.4096 
 530   0.0000       2.041671        55.5567 
 531   0.0000       2.044081        55.6223 
 532   0.0000       2.056574        55.9622 
 533   0.0000       2.058238        56.0075 
 534   0.0000       2.066670        56.2369 
 535   0.0000       2.069970        56.3268 
 536   0.0000       2.075575        56.4793 
 537   0.0000       2.085001        56.7357 
 538   0.0000       2.090623        56.8887 
 539   0.0000       2.096261        57.0422 
 540   0.0000       2.100234        57.1503 
 541   0.0000       2.102778        57.2195 
 542   0.0000       2.107532        57.3489 
 543   0.0000       2.117097        57.6091 
 544   0.0000       2.122089        57.7450 
 545   0.0000       2.131532        58.0019 
 546   0.0000       2.139542        58.2199 
 547   0.0000       2.143979        58.3406 
 548   0.0000       2.153212        58.5919 
 549   0.0000       2.158557        58.7373 
 550   0.0000       2.167184        58.9721 
 551   0.0000       2.169558        59.0367 
 552   0.0000       2.180501        59.3344 
 553   0.0000       2.190591        59.6090 
 554   0.0000       2.193741        59.6947 
 555   0.0000       2.202497        59.9330 
 556   0.0000       2.207083        60.0578 
 557   0.0000       2.213231        60.2251 
 558   0.0000       2.220537        60.4239 
 559   0.0000       2.233257        60.7700 
 560   0.0000       2.238528        60.9134 
 561   0.0000       2.245359        61.0993 
 562   0.0000       2.248512        61.1851 
 563   0.0000       2.257727        61.4359 
 564   0.0000       2.261789        61.5464 
 565   0.0000       2.265555        61.6489 
 566   0.0000       2.280210        62.0477 
 567   0.0000       2.286307        62.2136 
 568   0.0000       2.296466        62.4900 
 569   0.0000       2.299403        62.5699 
 570   0.0000       2.305786        62.7436 
 571   0.0000       2.308448        62.8161 
 572   0.0000       2.322412        63.1960 
 573   0.0000       2.326144        63.2976 
 574   0.0000       2.340044        63.6758 
 575   0.0000       2.355251        64.0896 
 576   0.0000       2.361271        64.2534 
 577   0.0000       2.366202        64.3876 
 578   0.0000       2.377066        64.6833 
 579   0.0000       2.379376        64.7461 
 580   0.0000       2.389606        65.0245 
 581   0.0000       2.393550        65.1318 
 582   0.0000       2.402262        65.3689 
 583   0.0000       2.403685        65.4076 
 584   0.0000       2.426524        66.0291 
 585   0.0000       2.439583        66.3844 
 586   0.0000       2.447228        66.5925 
 587   0.0000       2.451629        66.7122 
 588   0.0000       2.465236        67.0825 
 589   0.0000       2.471390        67.2499 
 590   0.0000       2.476871        67.3991 
 591   0.0000       2.478789        67.4513 
 592   0.0000       2.489147        67.7331 
 593   0.0000       2.498185        67.9791 
 594   0.0000       2.515440        68.4486 
 595   0.0000       2.517192        68.4963 
 596   0.0000       2.539144        69.0936 
 597   0.0000       2.545932        69.2783 
 598   0.0000       2.572290        69.9956 
 599   0.0000       2.588916        70.4480 
 600   0.0000       2.594688        70.6050 
 601   0.0000       2.615979        71.1844 
 602   0.0000       2.627539        71.4990 
 603   0.0000       2.628838        71.5343 
 604   0.0000       2.649393        72.0937 
 605   0.0000       2.654338        72.2282 
 606   0.0000       2.666521        72.5597 
 607   0.0000       2.669662        72.6452 
 608   0.0000       2.685117        73.0657 
 609   0.0000       2.688529        73.1586 
 610   0.0000       2.697351        73.3987 
 611   0.0000       2.707848        73.6843 
 612   0.0000       2.717659        73.9513 
 613   0.0000       2.725462        74.1636 
 614   0.0000       2.730280        74.2947 
 615   0.0000       2.754725        74.9599 
 616   0.0000       2.764198        75.2177 
 617   0.0000       2.771755        75.4233 
 618   0.0000       2.779480        75.6335 
 619   0.0000       2.781620        75.6917 
 620   0.0000       2.791557        75.9621 
 621   0.0000       2.804898        76.3252 
 622   0.0000       2.813689        76.5644 
 623   0.0000       2.816074        76.6293 
 624   0.0000       2.846231        77.4499 
 625   0.0000       2.865130        77.9642 
 626   0.0000       2.866333        77.9969 
 627   0.0000       2.881627        78.4130 
 628   0.0000       2.887347        78.5687 
 629   0.0000       2.890554        78.6560 
 630   0.0000       2.900576        78.9287 
 631   0.0000       2.909561        79.1732 
 632   0.0000       2.913305        79.2751 
 633   0.0000       2.924487        79.5793 
 634   0.0000       2.930694        79.7482 
 635   0.0000       2.936321        79.9014 
 636   0.0000       2.940490        80.0148 
 637   0.0000       2.945950        80.1634 
 638   0.0000       2.956004        80.4370 
 639   0.0000       2.966040        80.7100 
 640   0.0000       2.973617        80.9162 
 641   0.0000       2.976399        80.9919 
 642   0.0000       2.987379        81.2907 
 643   0.0000       2.997283        81.5602 
 644   0.0000       3.001564        81.6767 
 645   0.0000       3.013161        81.9923 
 646   0.0000       3.020455        82.1908 
 647   0.0000       3.026447        82.3538 
 648   0.0000       3.027139        82.3727 
 649   0.0000       3.033904        82.5567 
 650   0.0000       3.040138        82.7264 
 651   0.0000       3.042848        82.8001 
 652   0.0000       3.057038        83.1862 
 653   0.0000       3.064074        83.3777 
 654   0.0000       3.072239        83.5999 
 655   0.0000       3.076668        83.7204 
 656   0.0000       3.083544        83.9075 
 657   0.0000       3.089455        84.0684 
 658   0.0000       3.102445        84.4218 
 659   0.0000       3.112555        84.6969 
 660   0.0000       3.116203        84.7962 
 661   0.0000       3.127427        85.1016 
 662   0.0000       3.131587        85.2148 
 663   0.0000       3.136616        85.3517 
 664   0.0000       3.146204        85.6126 
 665   0.0000       3.164102        86.0996 
 666   0.0000       3.167532        86.1929 
 667   0.0000       3.171633        86.3045 
 668   0.0000       3.188660        86.7678 
 669   0.0000       3.199544        87.0640 
 670   0.0000       3.207660        87.2849 
 671   0.0000       3.216845        87.5348 
[...]
    128      -0.000753   0.001552  -0.090076
    129      -0.000263   0.000792  -0.000070
    130       0.000092  -0.000300  -0.000150
    131       0.000442  -0.001163  -0.000153
    132       0.004581  -0.012214   0.000476
    133       0.000877  -0.002404  -0.000275
    134      -0.002430   0.006572  -0.000441
    135       0.000112  -0.000245  -0.000172
    136      -0.002688   0.007379   0.001976
    137      -0.004310   0.011970   0.003064
    138       0.000370  -0.000835   0.000130
    139      -0.000071   0.000171  -0.000015
    140      -0.000365   0.000799  -0.000173
    141      -0.000580   0.001351  -0.000236
    142       0.000844  -0.001894   0.000379
    143       0.004553  -0.010502   0.001772
    144      -0.005489   0.011804  -0.001617
    145       0.000610  -0.001197   0.000024
    146       0.001207  -0.002496   0.000827


-----------
IR SPECTRUM
-----------

 Mode   freq       eps      Int      T**2         TX        TY        TZ
       cm**-1   L/(mol*cm) km/mol    a.u.
----------------------------------------------------------------------------
 40:     22.18   0.002496   12.61  0.035109  (-0.170791 -0.035133 -0.068597)
 41:     33.16   0.003792   19.16  0.035678  ( 0.102999 -0.135955  0.081153)
 42:     38.43   0.002556   12.92  0.020762  ( 0.094728  0.028773  0.104692)
 43:     47.58   0.002836   14.33  0.018601  ( 0.069082 -0.088879 -0.076999)
 44:     53.14   0.000084    0.42  0.000493  (-0.007629 -0.007794  0.019337)
 45:     73.65   0.001157    5.85  0.004904  (-0.057285  0.039512 -0.007830)
 46:     76.27   0.007807   39.45  0.031942  (-0.160998 -0.051183  0.058332)
 47:     79.64   0.008981   45.39  0.035190  ( 0.172956  0.005267 -0.072447)
 48:     90.48   0.000649    3.28  0.002240  (-0.033048 -0.032839  0.008339)
 49:     97.16   0.003174   16.04  0.010196  (-0.091148 -0.043309  0.003502)
 50:    113.35   0.013704   69.25  0.037728  ( 0.184615 -0.048963  0.035321)
 51:    125.07   0.001557    7.87  0.003885  ( 0.061548 -0.006925 -0.006968)
 52:    136.64   0.001017    5.14  0.002322  ( 0.003064  0.005812 -0.047732)
 53:    137.96   0.000359    1.82  0.000813  (-0.002454  0.016553  0.023077)
 54:    148.91   0.000981    4.96  0.002056  ( 0.031496 -0.007793 -0.031675)
 55:    169.96   0.016701   84.40  0.030664  ( 0.058601 -0.121898 -0.111225)
 56:    184.53   0.036301  183.45  0.061389  (-0.105287  0.076355 -0.210888)
 57:    190.35   0.017837   90.14  0.029241  ( 0.144807  0.088860 -0.019395)
 58:    192.68   0.011598   58.61  0.018785  ( 0.070021 -0.041369 -0.110319)
 59:    195.16   0.003095   15.64  0.004948  ( 0.068406  0.005624  0.015404)
 60:    200.56   0.014060   71.05  0.021877  ( 0.118862 -0.066332 -0.057865)
 61:    228.03   0.006111   30.88  0.008363  ( 0.068354  0.060749 -0.000058)
 62:    243.57   0.001351    6.83  0.001732  ( 0.014677 -0.035872  0.015143)
 63:    250.01   0.002720   13.75  0.003395  ( 0.033462  0.027729 -0.038813)
 64:    255.03   0.001334    6.74  0.001633  ( 0.035292  0.011888 -0.015680)
 65:    260.68   0.016130   81.51  0.019309  (-0.001321  0.047312  0.130648)
 66:    264.28   0.020685  104.53  0.024425  (-0.078063  0.014779  0.134582)
 67:    271.00   0.026120  132.00  0.030079  (-0.121512 -0.012404  0.123124)
 68:    278.37   0.017812   90.02  0.019968  (-0.016099  0.018569  0.139155)
 69:    281.23   0.029519  149.17  0.032755  (-0.044813  0.041553  0.170353)
 70:    290.25   0.008968   45.32  0.009642  ( 0.095794 -0.002384 -0.021446)
 71:    300.60   0.013750   69.49  0.014275  ( 0.095152  0.071561  0.009983)
 72:    319.27   0.006585   33.28  0.006437  (-0.042177  0.007859  0.067793)
 73:    328.15   0.003370   17.03  0.003205  ( 0.022326  0.010124  0.051028)
 74:    339.98   0.009145   46.21  0.008394  (-0.079403 -0.044561 -0.010171)
 75:    361.34   0.002614   13.21  0.002258  (-0.042490 -0.020932 -0.003785)
 76:    371.87   0.011663   58.94  0.009787  ( 0.074869 -0.045606  0.045847)
 77:    372.47   0.004314   21.80  0.003615  (-0.010956 -0.036939  0.046153)
 78:    400.59   0.021082  106.54  0.016423  (-0.062969 -0.103579 -0.041588)
 79:    414.89   0.072690  367.34  0.054674  (-0.231764 -0.019666 -0.023927)
 80:    417.86   0.014905   75.32  0.011131  ( 0.078621  0.031516 -0.062902)
 81:    435.48   0.003824   19.33  0.002740  ( 0.038087 -0.010967 -0.034197)
 82:    447.55   0.011532   58.28  0.008041  (-0.074129 -0.008656  0.049705)
 83:    469.61   0.010060   50.84  0.006685  (-0.039167 -0.071486 -0.006403)
 84:    490.26   0.046487  234.93  0.029590  (-0.098286 -0.098673 -0.100964)
 85:    511.43   0.029919  151.20  0.018256  (-0.024003  0.123510  0.049246)
 86:    549.91   0.029965  151.43  0.017005  ( 0.079827  0.003696 -0.103047)
 87:    562.62   0.006856   34.65  0.003803  (-0.048271  0.004968  0.038051)
 88:    563.06   0.039045  197.32  0.021640  (-0.022969  0.008632 -0.145045)
 89:    633.17   0.052832  266.99  0.026039  ( 0.127977  0.095272  0.024165)
 90:    643.11   0.010814   54.65  0.005247  (-0.046951 -0.054888  0.005505)
 91:    685.84   0.042469  214.62  0.019324  ( 0.071157 -0.112630  0.039682)
 92:    733.03   0.010340   52.26  0.004402  ( 0.018610  0.045631  0.044424)
 93:    796.23   0.010779   54.47  0.004224  (-0.014739  0.063260 -0.002320)
 94:    824.45   0.072470  366.23  0.027431  ( 0.087608  0.021470 -0.138905)
 95:    901.32   0.031239  157.87  0.010816  (-0.073822 -0.004027 -0.073144)
 96:    974.41   0.015885   80.28  0.005087  ( 0.054388  0.042406  0.018194)
 97:   1018.89   0.042692  215.75  0.013076  (-0.063808 -0.086282  0.039492)
 98:   1106.08   0.015561   78.64  0.004390  ( 0.061662  0.019906 -0.013856)
 99:   1445.68   0.007874   39.79  0.001700  ( 0.022078  0.024324  0.024913)
100:   1481.85   0.030172  152.48  0.006354  (-0.054575 -0.015279 -0.056054)
101:   1496.06   0.038457  194.35  0.008022  ( 0.048111  0.071741  0.023671)
102:   1525.01   0.033493  169.26  0.006854  ( 0.036217  0.069624 -0.026353)
103:   1529.43   0.032460  164.04  0.006623  ( 0.070329  0.030070  0.027795)
104:   1540.43   0.028103  142.02  0.005693  (-0.061674 -0.015538 -0.040598)
105:   1549.10   0.040266  203.49  0.008112  (-0.068079  0.044127  0.039110)
106:   1584.96   0.016735   84.57  0.003295  (-0.031680 -0.000037 -0.047868)
107:   1593.85   0.026448  133.66  0.005178  (-0.016614  0.059134  0.037490)
108:   1594.55   0.023760  120.07  0.004650  (-0.024927 -0.059341  0.022520)
109:   1614.44   0.030300  153.13  0.005857  ( 0.075683  0.011355 -0.000252)
110:   1634.38   0.021550  108.90  0.004115  (-0.042853  0.047391 -0.005685)
111:   1638.10   0.017548   88.68  0.003343  ( 0.028899 -0.007875 -0.049455)
112:   1672.38   0.021848  110.41  0.004077  (-0.006552 -0.036204  0.052184)
113:   1681.78   0.041687  210.67  0.007735  ( 0.017290  0.068665  0.052167)
114:   1899.91   0.014922   75.41  0.002451  ( 0.015245  0.047070 -0.001716)
115:   3339.88   0.272968  1379.47  0.025505  ( 0.024254 -0.110432 -0.112789)
116:   3408.37   0.220019  1111.89  0.020145  (-0.134212  0.045987  0.004115)
117:   3712.63   0.094361  476.86  0.007931  (-0.041145  0.043010  0.066247)
118:   3765.26   0.031814  160.77  0.002637  (-0.003871  0.024654 -0.044877)
119:   3785.67   0.065545  331.24  0.005403  (-0.017925 -0.070071 -0.013107)
120:   3789.41   0.080185  405.22  0.006603  ( 0.033439  0.057391 -0.046813)
121:   3798.25   0.019063   96.34  0.001566  ( 0.014809 -0.035706 -0.008486)
122:   3804.31   0.003913   19.78  0.000321  (-0.003156 -0.017455 -0.002525)
123:   3818.86   0.012904   65.21  0.001054  ( 0.030703  0.005281  0.009159)
124:   3842.65   0.180413  911.73  0.014651  ( 0.020888 -0.050282 -0.108105)
125:   3849.61   0.107371  542.61  0.008704  (-0.006626 -0.002413 -0.093028)
126:   3854.89   0.033182  167.69  0.002686  (-0.015499 -0.011174 -0.048178)
127:   3862.44   0.096445  487.39  0.007792  ( 0.051276  0.002912 -0.071795)
128:   3864.23   0.062739  317.06  0.005067  (-0.029238  0.000438 -0.064897)
129:   3867.38   0.044354  224.15  0.003579  (-0.007841  0.035925 -0.047190)
130:   3877.83   0.067219  339.70  0.005409  (-0.069157 -0.000140  0.025033)
131:   3883.56   0.033675  170.18  0.002706  (-0.048190  0.010302 -0.016661)
132:   3895.09   0.046007  232.50  0.003686  ( 0.010022 -0.059385  0.007677)
133:   3976.47   0.007230   36.54  0.000567  (-0.013225 -0.014164 -0.013852)
134:   3976.93   0.007453   37.67  0.000585  (-0.011481 -0.019825 -0.007745)
135:   3977.38   0.003835   19.38  0.000301  ( 0.016245  0.005199 -0.003154)
136:   3979.60   0.010932   55.24  0.000857  (-0.023506 -0.012187 -0.012497)
137:   3983.97   0.012537   63.36  0.000982  ( 0.022051  0.022218 -0.001465)
138:   3988.57   0.080060  404.59  0.006264  ( 0.003678  0.042336  0.066768)
139:   4041.77   0.034898  176.36  0.002694  ( 0.030646 -0.004365 -0.041667)
140:   4070.95   0.040484  204.59  0.003103  ( 0.044126 -0.032828 -0.008864)
141:   4077.48   0.053268  269.19  0.004077  ( 0.004988  0.002590 -0.063602)
142:   4097.96   0.042669  215.63  0.003249  (-0.039328  0.007666  0.040544)
143:   4098.63   0.036621  185.07  0.002788  (-0.026696  0.014491  0.043192)
144:   4101.51   0.063187  319.32  0.004808  (-0.040052  0.009287  0.055831)
145:   4102.75   0.007904   39.94  0.000601  ( 0.010502  0.002822 -0.021976)
146:   4115.81   0.030308  153.17  0.002298  (-0.013445  0.010523 -0.044794)

* The epsilon (eps) is given for a Dirac delta lineshape.
** The dipole moment derivative (T) already includes vibrational overlap.

The first frequency considered to be a vibration is 40
The total number of vibrations considered is 107


--------------------------
THERMOCHEMISTRY AT 298.15K
--------------------------

Temperature         ... 298.15 K
Pressure            ... 1.00 atm
Total Mass          ... 312.55 AMU

Throughout the following assumptions are being made:
  (1) The electronic state is orbitally nondegenerate
  (2) There are no thermally accessible electronically excited states
  (3) Hindered rotations indicated by low frequency modes are not
      treated as such but are treated as vibrations and this may
      cause some error
  (4) All equations used are the standard statistical mechanics
      equations for an ideal gas
  (5) All vibrations are strictly harmonic

freq.      22.18  E(vib)   ...       0.56 
freq.      33.16  E(vib)   ...       0.55 
freq.      38.43  E(vib)   ...       0.54 
freq.      47.58  E(vib)   ...       0.53 
freq.      53.14  E(vib)   ...       0.52 
freq.      73.65  E(vib)   ...       0.49 
freq.      76.27  E(vib)   ...       0.49 
freq.      79.64  E(vib)   ...       0.49 
freq.      90.48  E(vib)   ...       0.47 
freq.      97.16  E(vib)   ...       0.46 
freq.     113.35  E(vib)   ...       0.45 
freq.     125.07  E(vib)   ...       0.43 
freq.     136.64  E(vib)   ...       0.42 
freq.     137.96  E(vib)   ...       0.42 
freq.     148.91  E(vib)   ...       0.40 
freq.     169.96  E(vib)   ...       0.38 
freq.     184.53  E(vib)   ...       0.37 
freq.     190.35  E(vib)   ...       0.36 
freq.     192.68  E(vib)   ...       0.36 
freq.     195.16  E(vib)   ...       0.36 
freq.     200.56  E(vib)   ...       0.35 
freq.     228.03  E(vib)   ...       0.33 
freq.     243.57  E(vib)   ...       0.31 
freq.     250.01  E(vib)   ...       0.31 
freq.     255.03  E(vib)   ...       0.30 
freq.     260.68  E(vib)   ...       0.30 
freq.     264.28  E(vib)   ...       0.29 
freq.     271.00  E(vib)   ...       0.29 
freq.     278.37  E(vib)   ...       0.28 
freq.     281.23  E(vib)   ...       0.28 
freq.     290.25  E(vib)   ...       0.27 
freq.     300.60  E(vib)   ...       0.26 
freq.     319.27  E(vib)   ...       0.25 
freq.     328.15  E(vib)   ...       0.24 
freq.     339.98  E(vib)   ...       0.23 
freq.     361.34  E(vib)   ...       0.22 
freq.     371.87  E(vib)   ...       0.21 
freq.     372.47  E(vib)   ...       0.21 
freq.     400.59  E(vib)   ...       0.19 
freq.     414.89  E(vib)   ...       0.19 
freq.     417.86  E(vib)   ...       0.18 
freq.     435.48  E(vib)   ...       0.17 
freq.     447.55  E(vib)   ...       0.17 
freq.     469.61  E(vib)   ...       0.16 
freq.     490.26  E(vib)   ...       0.15 
freq.     511.43  E(vib)   ...       0.14 
freq.     549.91  E(vib)   ...       0.12 
freq.     562.62  E(vib)   ...       0.11 
freq.     563.06  E(vib)   ...       0.11 
freq.     633.17  E(vib)   ...       0.09 
freq.     643.11  E(vib)   ...       0.09 
freq.     685.84  E(vib)   ...       0.07 
freq.     733.03  E(vib)   ...       0.06 
freq.     796.23  E(vib)   ...       0.05 
freq.     824.45  E(vib)   ...       0.04 
freq.     901.32  E(vib)   ...       0.03 
freq.     974.41  E(vib)   ...       0.03 
freq.    1018.89  E(vib)   ...       0.02 
freq.    1106.08  E(vib)   ...       0.02 
freq.    1445.68  E(vib)   ...       0.00 
freq.    1481.85  E(vib)   ...       0.00 
freq.    1496.06  E(vib)   ...       0.00 
freq.    1525.01  E(vib)   ...       0.00 
freq.    1529.43  E(vib)   ...       0.00 
freq.    1540.43  E(vib)   ...       0.00 
freq.    1549.10  E(vib)   ...       0.00 
freq.    1584.96  E(vib)   ...       0.00 
freq.    1593.85  E(vib)   ...       0.00 
freq.    1594.55  E(vib)   ...       0.00 
freq.    1614.44  E(vib)   ...       0.00 
freq.    1634.38  E(vib)   ...       0.00 
freq.    1638.10  E(vib)   ...       0.00 
freq.    1672.38  E(vib)   ...       0.00 
freq.    1681.78  E(vib)   ...       0.00 
freq.    1899.91  E(vib)   ...       0.00 
freq.    3339.88  E(vib)   ...       0.00 
freq.    3408.37  E(vib)   ...       0.00 
freq.    3712.63  E(vib)   ...       0.00 
freq.    3765.26  E(vib)   ...       0.00 
freq.    3785.67  E(vib)   ...       0.00 
freq.    3789.41  E(vib)   ...       0.00 
freq.    3798.25  E(vib)   ...       0.00 
freq.    3804.31  E(vib)   ...       0.00 
freq.    3818.86  E(vib)   ...       0.00 
freq.    3842.65  E(vib)   ...       0.00 
freq.    3849.61  E(vib)   ...       0.00 
freq.    3854.89  E(vib)   ...       0.00 
freq.    3862.44  E(vib)   ...       0.00 
freq.    3864.23  E(vib)   ...       0.00 
freq.    3867.38  E(vib)   ...       0.00 
freq.    3877.83  E(vib)   ...       0.00 
freq.    3883.56  E(vib)   ...       0.00 
freq.    3895.09  E(vib)   ...       0.00 
freq.    3976.47  E(vib)   ...       0.00 
freq.    3976.93  E(vib)   ...       0.00 
freq.    3977.38  E(vib)   ...       0.00 
freq.    3979.60  E(vib)   ...       0.00 
freq.    3983.97  E(vib)   ...       0.00 
freq.    3988.57  E(vib)   ...       0.00 
freq.    4041.77  E(vib)   ...       0.00 
freq.    4070.95  E(vib)   ...       0.00 
freq.    4077.48  E(vib)   ...       0.00 
freq.    4097.96  E(vib)   ...       0.00 
freq.    4098.63  E(vib)   ...       0.00 
freq.    4101.51  E(vib)   ...       0.00 
freq.    4102.75  E(vib)   ...       0.00 
freq.    4115.81  E(vib)   ...       0.00 

------------
INNER ENERGY
------------

The inner energy is: U= E(el) + E(ZPE) + E(vib) + E(rot) + E(trans)
    E(el)   - is the total energy from the electronic structure calculation
              = E(kin-el) + E(nuc-el) + E(el-el) + E(nuc-nuc)
    E(ZPE)  - the the zero temperature vibrational energy from the frequency calculation
    E(vib)  - the the finite temperature correction to E(ZPE) due to population
              of excited vibrational states
    E(rot)  - is the rotational thermal energy
    E(trans)- is the translational thermal energy

Summary of contributions to the inner energy U:
Electronic energy                ...  -1423.67671645 Eh
Zero point energy                ...      0.38978262 Eh     244.59 kcal/mol
Thermal vibrational correction   ...      0.02581922 Eh      16.20 kcal/mol
Thermal rotational correction    ...      0.00141627 Eh       0.89 kcal/mol
Thermal translational correction ...      0.00141627 Eh       0.89 kcal/mol
-----------------------------------------------------------------------
Total thermal energy                  -1423.25828207 Eh


Summary of corrections to the electronic energy:
(perhaps to be used in another calculation)
Total thermal correction                  0.02865176 Eh      17.98 kcal/mol
Non-thermal (ZPE) correction              0.38978262 Eh     244.59 kcal/mol
-----------------------------------------------------------------------
Total correction                          0.41843438 Eh     262.57 kcal/mol


--------
ENTHALPY
--------

The enthalpy is H = U + kB*T
                kB is Boltzmann's constant
Total free energy                 ...  -1423.25828207 Eh 
Thermal Enthalpy correction       ...      0.00094421 Eh       0.59 kcal/mol
-----------------------------------------------------------------------
Total Enthalpy                    ...  -1423.25733786 Eh


Note: Only C1 symmetry has been detected, increase convergence thresholds 
      if your molecule has a higher symmetry. Symmetry factor of 1.0 is   
      used for the rotational entropy correction. 
 

Note: Rotational entropy computed according to Herzberg 
Infrared and Raman Spectra, Chapter V,1, Van Nostrand Reinhold, 1945 
Point Group:  C1, Symmetry Number:   1  
Rotational constants in cm-1:     0.009701     0.007633     0.007035 

Vibrational entropy computed according to the QRRHO of S. Grimme
Chem.Eur.J. 2012 18 9955


-------
ENTROPY
-------

The entropy contributions are T*S = T*(S(el)+S(vib)+S(rot)+S(trans))
     S(el)   - electronic entropy
     S(vib)  - vibrational entropy
     S(rot)  - rotational entropy
     S(trans)- translational entropy
The entropies will be listed as multiplied by the temperature to get
units of energy

Electronic entropy                ...      0.00000000 Eh      0.00 kcal/mol
Vibrational entropy               ...      0.04695368 Eh     29.46 kcal/mol
Rotational entropy                ...      0.01634090 Eh     10.25 kcal/mol
Translational entropy             ...      0.02048519 Eh     12.85 kcal/mol
-----------------------------------------------------------------------
Final entropy term                ...      0.08377977 Eh     52.57 kcal/mol

In case the symmetry of your molecule has not been determined correctly
or in case you have a reason to use a different symmetry number we print 
out the resulting rotational entropy values for sn=1,12 :
 --------------------------------------------------------
|  sn= 1 | S(rot)=       0.01634090 Eh     10.25 kcal/mol|
|  sn= 2 | S(rot)=       0.01568644 Eh      9.84 kcal/mol|
|  sn= 3 | S(rot)=       0.01530361 Eh      9.60 kcal/mol|
|  sn= 4 | S(rot)=       0.01503199 Eh      9.43 kcal/mol|
|  sn= 5 | S(rot)=       0.01482130 Eh      9.30 kcal/mol|
|  sn= 6 | S(rot)=       0.01464916 Eh      9.19 kcal/mol|
|  sn= 7 | S(rot)=       0.01450361 Eh      9.10 kcal/mol|
|  sn= 8 | S(rot)=       0.01437753 Eh      9.02 kcal/mol|
|  sn= 9 | S(rot)=       0.01426632 Eh      8.95 kcal/mol|
|  sn=10 | S(rot)=       0.01416684 Eh      8.89 kcal/mol|
|  sn=11 | S(rot)=       0.01407685 Eh      8.83 kcal/mol|
|  sn=12 | S(rot)=       0.01399470 Eh      8.78 kcal/mol|
 --------------------------------------------------------


-------------------
GIBBS FREE ENERGY
-------------------

The Gibbs free energy is G = H - T*S

Total enthalpy                    ...  -1423.25733786 Eh 
Total entropy correction          ...     -0.08377977 Eh    -52.57 kcal/mol
-----------------------------------------------------------------------
Final Gibbs free energy         ...  -1423.34111763 Eh

For completeness - the Gibbs free energy minus the electronic energy
G-E(el)                           ...      0.33559882 Eh    210.59 kcal/mol


Timings for individual modules:

Sum of individual times         ...     4691.685 sec (=  78.195 min)
GTO integral calculation        ...        1.375 sec (=   0.023 min)   0.0 %
SCF iterations                  ...      248.885 sec (=   4.148 min)   5.3 %
Analytical frequency calculation...     4441.426 sec (=  74.024 min)  94.7 %
                             ****ORCA TERMINATED NORMALLY****
TOTAL RUN TIME: 0 days 1 hours 18 minutes 12 seconds 823 msec
