
                                 *****************
                                 * O   R   C   A *
                                 *****************

                                            #,                                       
                                            ###                                      
                                            ####                                     
                                            #####                                    
                                            ######                                   
                                           ########,                                 
                                     ,,################,,,,,                         
                               ,,#################################,,                 
                          ,,##########################################,,             
                       ,#########################################, ''#####,          
                    ,#############################################,,   '####,        
                  ,##################################################,,,,####,       
                ,###########''''           ''''###############################       
              ,#####''   ,,,,##########,,,,          '''####'''          '####       
            ,##' ,,,,###########################,,,                        '##       
           ' ,,###''''                  '''############,,,                           
         ,,##''                                '''############,,,,        ,,,,,,###''
      ,#''                                            '''#######################'''  
     '                                                          ''''####''''         
             ,#######,   #######,   ,#######,      ##                                
            ,#'     '#,  ##    ##  ,#'     '#,    #''#        ######   ,####,        
            ##       ##  ##   ,#'  ##            #'  '#       #        #'  '#        
            ##       ##  #######   ##           ,######,      #####,   #    #        
            '#,     ,#'  ##    ##  '#,     ,#' ,#      #,         ##   #,  ,#        
             '#######'   ##     ##  '#######'  #'      '#     #####' # '####'        



                  #######################################################
                  #                        -***-                        #
                  #          Department of theory and spectroscopy      #
                  #    Directorship and core code : Frank Neese         #
                  #        Max Planck Institute fuer Kohlenforschung    #
                  #                Kaiser Wilhelm Platz 1               #
                  #                 D-45470 Muelheim/Ruhr               #
                  #                      Germany                        #
                  #                                                     #
                  #                  All rights reserved                #
                  #                        -***-                        #
                  #######################################################


                         Program Version 5.0.4 -  RELEASE  -


 With contributions from (in alphabetic order):
   Daniel Aravena         : Magnetic Suceptibility
   Michael Atanasov       : Ab Initio Ligand Field Theory (pilot matlab implementation)
   Alexander A. Auer      : GIAO ZORA, VPT2 properties, NMR spectrum
   Ute Becker             : Parallelization
   Giovanni Bistoni       : ED, misc. LED, open-shell LED, HFLD
   Martin Brehm           : Molecular dynamics
   Dmytro Bykov           : SCF Hessian
   Vijay G. Chilkuri      : MRCI spin determinant printing, contributions to CSF-ICE
   Dipayan Datta          : RHF DLPNO-CCSD density
   Achintya Kumar Dutta   : EOM-CC, STEOM-CC
   Dmitry Ganyushin       : Spin-Orbit,Spin-Spin,Magnetic field MRCI
   Miquel Garcia          : C-PCM and meta-GGA Hessian, CC/C-PCM, Gaussian charge scheme
   Yang Guo               : DLPNO-NEVPT2, F12-NEVPT2, CIM, IAO-localization
   Andreas Hansen         : Spin unrestricted coupled pair/coupled cluster methods
   Benjamin Helmich-Paris : MC-RPA, TRAH-SCF, COSX integrals
   Lee Huntington         : MR-EOM, pCC
   Robert Izsak           : Overlap fitted RIJCOSX, COSX-SCS-MP3, EOM
   Marcus Kettner         : VPT2
   Christian Kollmar      : KDIIS, OOCD, Brueckner-CCSD(T), CCSD density, CASPT2, CASPT2-K
   Simone Kossmann        : Meta GGA functionals, TD-DFT gradient, OOMP2, MP2 Hessian
   Martin Krupicka        : Initial AUTO-CI
   Lucas Lang             : DCDCAS
   Marvin Lechner         : AUTO-CI (C++ implementation), FIC-MRCC
   Dagmar Lenk            : GEPOL surface, SMD
   Dimitrios Liakos       : Extrapolation schemes; Compound Job, initial MDCI parallelization
   Dimitrios Manganas     : Further ROCIS development; embedding schemes
   Dimitrios Pantazis     : SARC Basis sets
   Anastasios Papadopoulos: AUTO-CI, single reference methods and gradients
   Taras Petrenko         : DFT Hessian,TD-DFT gradient, ASA, ECA, R-Raman, ABS, FL, XAS/XES, NRVS
   Peter Pinski           : DLPNO-MP2, DLPNO-MP2 Gradient
   Christoph Reimann      : Effective Core Potentials
   Marius Retegan         : Local ZFS, SOC
   Christoph Riplinger    : Optimizer, TS searches, QM/MM, DLPNO-CCSD(T), (RO)-DLPNO pert. Triples
   Tobias Risthaus        : Range-separated hybrids, TD-DFT gradient, RPA, STAB
   Michael Roemelt        : Original ROCIS implementation
   Masaaki Saitow         : Open-shell DLPNO-CCSD energy and density
   Barbara Sandhoefer     : DKH picture change effects
   Avijit Sen             : IP-ROCIS
   Kantharuban Sivalingam : CASSCF convergence, NEVPT2, FIC-MRCI
   Bernardo de Souza      : ESD, SOC TD-DFT
   Georgi Stoychev        : AutoAux, RI-MP2 NMR, DLPNO-MP2 response
   Willem Van den Heuvel  : Paramagnetic NMR
   Boris Wezisla          : Elementary symmetry handling
   Frank Wennmohs         : Technical directorship


 We gratefully acknowledge several colleagues who have allowed us to
 interface, adapt or use parts of their codes:
   Stefan Grimme, W. Hujo, H. Kruse, P. Pracht,  : VdW corrections, initial TS optimization,
                  C. Bannwarth, S. Ehlert          DFT functionals, gCP, sTDA/sTD-DF
   Ed Valeev, F. Pavosevic, A. Kumar             : LibInt (2-el integral package), F12 methods
   Garnet Chan, S. Sharma, J. Yang, R. Olivares  : DMRG
   Ulf Ekstrom                                   : XCFun DFT Library
   Mihaly Kallay                                 : mrcc  (arbitrary order and MRCC methods)
   Jiri Pittner, Ondrej Demel                    : Mk-CCSD
   Frank Weinhold                                : gennbo (NPA and NBO analysis)
   Christopher J. Cramer and Donald G. Truhlar   : smd solvation model
   Lars Goerigk                                  : TD-DFT with DH, B97 family of functionals
   V. Asgeirsson, H. Jonsson                     : NEB implementation
   FAccTs GmbH                                   : IRC, NEB, NEB-TS, DLPNO-Multilevel, CI-OPT
                                                   MM, QMMM, 2- and 3-layer-ONIOM, Crystal-QMMM,
                                                   LR-CPCM, SF, NACMEs, symmetry and pop. for TD-DFT,
                                                   nearIR, NL-DFT gradient (VV10), updates on ESD,
                                                   ML-optimized integration grids
   S Lehtola, MJT Oliveira, MAL Marques          : LibXC Library
   Liviu Ungur et al                             : ANISO software


 Your calculation uses the libint2 library for the computation of 2-el integrals
 For citations please refer to: http://libint.valeyev.net

 Your ORCA version has been built with support for libXC version: 5.1.0
 For citations please refer to: https://tddft.org/programs/libxc/

 This ORCA versions uses:
   CBLAS   interface :  Fast vector & matrix operations
   LAPACKE interface :  Fast linear algebra routines
   SCALAPACK package :  Parallel linear algebra routines
   Shared memory     :  Shared parallel matrices
   BLAS/LAPACK       :  OpenBLAS 0.3.15  USE64BITINT DYNAMIC_ARCH NO_AFFINITY Zen SINGLE_THREADED
        Core in use  :  Zen
   Copyright (c) 2011-2014, The OpenBLAS Project


Your calculation utilizes the atom-pairwise dispersion correction
based on tight binding partial charges (D4)
Cite in your paper:
E.Caldeweyher, C.Bannwarth, S.Grimme, J.Chem.Phys., (2017), 147, 034112.
E.Caldeweyher, S.Ehlert, A.Hansen, H.Neugebauer, S.Grimme, J.Chem.Phys., (2018), in progress.
   

================================================================================

----- Orbital basis set information -----
Your calculation utilizes the basis: def2-TZVPD
   F. Weigend and R. Ahlrichs, Phys. Chem. Chem. Phys. 7, 3297 (2005).
   D. Rappoport and F. Furche, J. Chem. Phys. 133 134105 (2010).

----- AuxJ basis set information -----
Your calculation utilizes the auxiliary basis: def2/J
   F. Weigend, Phys. Chem. Chem. Phys. 8, 1057 (2006).

================================================================================
                                        WARNINGS
                       Please study these warnings very carefully!
================================================================================

WARNING: Old DensityContainer found on disk!
         Will remove this file - 
         If you want to keep old densities, please start your calculation with a different basename. 


INFO   : the flag for use of the SHARK integral package has been found!

================================================================================
                                       INPUT FILE
================================================================================
NAME = mg_32w_2_freq.inp
|  1> # avogadro generated ORCA file
|  2> # H64O32Mg | Geometry Optimization | wB97X-D3/def2-TZVP
|  3> # 
|  4> ! wB97X-D3BJ def2-TZVPD def2/J RIJCOSX D4 TightSCF CPCM(Water) FREQ
|  5> 
|  6> %maxcore 3638
|  7> 
|  8> %pal
|  9>    nprocs 6
| 10> end
| 11> 
| 12> * xyz 2 1
| 13>    Mg     0.644638    0.937480    0.025594
| 14>    H      2.274540    1.535580   -3.721977
| 15>    H      3.119855    2.847231   -3.752747
| 16>    O      2.233516    2.507463   -3.582949
| 17>    H      2.391688   -0.970380   -0.534099
| 18>    H      2.140601   -0.151880   -1.851344
| 19>    O      2.163264   -0.087650   -0.860913
| 20>    H     -1.390909   -2.900666   -1.444664
| 21>    H      0.157405   -3.112507   -1.511668
| 22>    O     -0.632108   -3.038731   -2.059091
| 23>    H     -2.685864    5.258086    0.829302
| 24>    H     -2.211096    4.743349   -0.557897
| 25>    O     -2.968020    4.734841    0.053124
| 26>    H     -0.534853   -1.770444   -3.400617
| 27>    H     -1.024452   -0.414210   -3.973346
| 28>    O     -0.403301   -1.144182   -4.138790
| 29>    H     -4.312056   -2.893285   -3.537536
| 30>    H     -5.595549   -2.970619   -2.650450
| 31>    O     -4.731301   -2.548153   -2.713934
| 32>    H     -3.170858   -2.765635   -5.518544
| 33>    H     -2.675453   -3.977173   -4.686211
| 34>    O     -3.479585   -3.478187   -4.947325
| 35>    H     -4.529681   -0.882776    1.527228
| 36>    H     -5.049862   -2.231304    2.044826
| 37>    O     -5.022158   -1.292527    2.260081
| 38>    H     -0.553710    2.663357    4.398421
| 39>    H     -0.889663    1.151205    4.376855
| 40>    O     -0.183976    1.781861    4.190720
| 41>    H     -3.997042    0.197316   -0.613559
| 42>    H     -3.349220    0.898933    0.645055
| 43>    O     -3.489840    0.025539    0.204301
| 44>    H      1.622084    2.553444   -1.917888
| 45>    H      0.492058    3.322404   -1.161464
| 46>    O      1.135442    2.585502   -1.066491
| 47>    H      1.690050    6.549038    4.210771
| 48>    H      2.328827    5.179174    4.488245
| 49>    O      1.582225    5.603598    4.046496
| 50>    H     -3.059488    0.828731   -3.154338
| 51>    H     -2.148050    1.914382   -3.808574
| 52>    O     -2.132991    1.046526   -3.389826
| 53>    H      0.132853    1.957365    2.505376
| 54>    H      0.508492    3.128768    1.501013
| 55>    O      0.200585    2.188800    1.547830
| 56>    H      4.343587   -2.409588   -2.976138
| 57>    H      4.879811   -2.026584   -4.385836
| 58>    O      4.418307   -1.673539   -3.616882
| 59>    H     -0.520796    4.536112   -2.582853
| 60>    H     -0.168958    5.469385   -1.396140
| 61>    O     -0.608428    4.636299   -1.608492
| 62>    H     -2.918224    6.554232    2.821704
| 63>    H     -1.841669    5.491742    3.121026
| 64>    O     -2.199739    6.058456    2.412422
| 65>    H     -2.947789    3.145394    0.891990
| 66>    H     -1.836909    2.276393    1.500722
| 67>    O     -2.801939    2.334978    1.426776
| 68>    H      5.819758   -3.544132   -0.779196
| 69>    H      7.350618   -3.524101   -0.951171
| 70>    O      6.652476   -3.362300   -0.306445
| 71>    H     -5.398956    0.633816   -2.595720
| 72>    H     -4.722901   -0.769528   -2.589600
| 73>    O     -4.573852    0.180358   -2.387495
| 74>    H      1.210250   -0.579778   -3.822018
| 75>    H      2.792748   -0.820186   -3.781121
| 76>    O      2.076399   -0.204279   -3.536781
| 77>    H     -1.340085    4.704878    5.324316
| 78>    H     -0.070274    4.904184    4.461486
| 79>    O     -0.952238    4.481636    4.469194
| 80>    H      1.313207    5.093410    2.270059
| 81>    H      1.787885    4.832649    0.821905
| 82>    O      1.025029    4.745240    1.405427
| 83>    H     -0.985018   -4.344096   -3.285097
| 84>    H     -0.586996   -5.064294   -4.595024
| 85>    O     -1.325367   -4.930900   -3.989717
| 86>    H     -1.293851    0.801816   -1.855776
| 87>    H     -1.831389    0.187978   -0.525104
| 88>    O     -1.008066    0.447558   -0.987085
| 89>    H      3.496018   -3.263889   -0.916946
| 90>    H      3.791496   -4.449552   -1.860630
| 91>    O      4.114888   -3.578825   -1.598200
| 92>    H     -2.969733   -1.878167   -0.134550
| 93>    H     -3.580849   -2.740582   -1.251204
| 94>    O     -2.890524   -2.745124   -0.560439
| 95>    H      1.839976   -3.486551    0.652765
| 96>    H      2.989012   -2.726163    1.333357
| 97>    O      2.350158   -2.665727    0.609190
| 98>    H      5.939177   -0.179930   -0.533128
| 99>    H      6.451145   -1.506296    0.077133
|100>    O      6.296498   -0.568169    0.284542
|101>    H      0.176573   -0.605394    2.255782
|102>    H      1.023255   -1.437807    1.245068
|103>    O      0.446210   -0.657533    1.331949
|104>    H      0.766115    3.538456   -4.163891
|105>    H     -0.607420    3.741996   -4.847573
|106>    O      0.019029    4.160225   -4.246088
|107>    H      4.500643    1.118413   -1.983573
|108>    H      5.013787   -0.141000   -2.701594
|109>    O      5.302883    0.609751   -2.150303
|110> *
|111> 
|112> 
|113> 
|114>                          ****END OF INPUT****
================================================================================

                       ****************************
                       * Single Point Calculation *
                       ****************************

---------------------------------
CARTESIAN COORDINATES (ANGSTROEM)
---------------------------------
  Mg     0.644638    0.937480    0.025594
  H      2.274540    1.535580   -3.721977
  H      3.119855    2.847231   -3.752747
  O      2.233516    2.507463   -3.582949
  H      2.391688   -0.970380   -0.534099
  H      2.140601   -0.151880   -1.851344
  O      2.163264   -0.087650   -0.860913
  H     -1.390909   -2.900666   -1.444664
  H      0.157405   -3.112507   -1.511668
  O     -0.632108   -3.038731   -2.059091
  H     -2.685864    5.258086    0.829302
  H     -2.211096    4.743349   -0.557897
  O     -2.968020    4.734841    0.053124
  H     -0.534853   -1.770444   -3.400617
  H     -1.024452   -0.414210   -3.973346
  O     -0.403301   -1.144182   -4.138790
  H     -4.312056   -2.893285   -3.537536
  H     -5.595549   -2.970619   -2.650450
  O     -4.731301   -2.548153   -2.713934
  H     -3.170858   -2.765635   -5.518544
  H     -2.675453   -3.977173   -4.686211
  O     -3.479585   -3.478187   -4.947325
  H     -4.529681   -0.882776    1.527228
  H     -5.049862   -2.231304    2.044826
  O     -5.022158   -1.292527    2.260081
  H     -0.553710    2.663357    4.398421
  H     -0.889663    1.151205    4.376855
  O     -0.183976    1.781861    4.190720
  H     -3.997042    0.197316   -0.613559
  H     -3.349220    0.898933    0.645055
  O     -3.489840    0.025539    0.204301
  H      1.622084    2.553444   -1.917888
  H      0.492058    3.322404   -1.161464
  O      1.135442    2.585502   -1.066491
  H      1.690050    6.549038    4.210771
  H      2.328827    5.179174    4.488245
  O      1.582225    5.603598    4.046496
  H     -3.059488    0.828731   -3.154338
  H     -2.148050    1.914382   -3.808574
  O     -2.132991    1.046526   -3.389826
  H      0.132853    1.957365    2.505376
  H      0.508492    3.128768    1.501013
  O      0.200585    2.188800    1.547830
  H      4.343587   -2.409588   -2.976138
  H      4.879811   -2.026584   -4.385836
  O      4.418307   -1.673539   -3.616882
  H     -0.520796    4.536112   -2.582853
  H     -0.168958    5.469385   -1.396140
  O     -0.608428    4.636299   -1.608492
  H     -2.918224    6.554232    2.821704
  H     -1.841669    5.491742    3.121026
  O     -2.199739    6.058456    2.412422
  H     -2.947789    3.145394    0.891990
  H     -1.836909    2.276393    1.500722
  O     -2.801939    2.334978    1.426776
  H      5.819758   -3.544132   -0.779196
  H      7.350618   -3.524101   -0.951171
  O      6.652476   -3.362300   -0.306445
  H     -5.398956    0.633816   -2.595720
  H     -4.722901   -0.769528   -2.589600
  O     -4.573852    0.180358   -2.387495
  H      1.210250   -0.579778   -3.822018
  H      2.792748   -0.820186   -3.781121
  O      2.076399   -0.204279   -3.536781
  H     -1.340085    4.704878    5.324316
  H     -0.070274    4.904184    4.461486
  O     -0.952238    4.481636    4.469194
  H      1.313207    5.093410    2.270059
  H      1.787885    4.832649    0.821905
  O      1.025029    4.745240    1.405427
  H     -0.985018   -4.344096   -3.285097
  H     -0.586996   -5.064294   -4.595024
  O     -1.325367   -4.930900   -3.989717
  H     -1.293851    0.801816   -1.855776
  H     -1.831389    0.187978   -0.525104
  O     -1.008066    0.447558   -0.987085
  H      3.496018   -3.263889   -0.916946
  H      3.791496   -4.449552   -1.860630
  O      4.114888   -3.578825   -1.598200
  H     -2.969733   -1.878167   -0.134550
  H     -3.580849   -2.740582   -1.251204
  O     -2.890524   -2.745124   -0.560439
  H      1.839976   -3.486551    0.652765
  H      2.989012   -2.726163    1.333357
  O      2.350158   -2.665727    0.609190
  H      5.939177   -0.179930   -0.533128
  H      6.451145   -1.506296    0.077133
  O      6.296498   -0.568169    0.284542
  H      0.176573   -0.605394    2.255782
  H      1.023255   -1.437807    1.245068
  O      0.446210   -0.657533    1.331949
  H      0.766115    3.538456   -4.163891
  H     -0.607420    3.741996   -4.847573
  O      0.019029    4.160225   -4.246088
  H      4.500643    1.118413   -1.983573
  H      5.013787   -0.141000   -2.701594
  O      5.302883    0.609751   -2.150303

----------------------------
CARTESIAN COORDINATES (A.U.)
----------------------------
  NO LB      ZA    FRAG     MASS         X           Y           Z
   0 Mg   12.0000    0    24.305    1.218189    1.771580    0.048366
   1 H     1.0000    0     1.008    4.298258    2.901826   -7.033517
   2 H     1.0000    0     1.008    5.895672    5.380487   -7.091664
   3 O     8.0000    0    15.999    4.220734    4.738418   -6.770792
   4 H     1.0000    0     1.008    4.519635   -1.833752   -1.009301
   5 H     1.0000    0     1.008    4.045150   -0.287012   -3.498533
   6 O     8.0000    0    15.999    4.087977   -0.165634   -1.626890
   7 H     1.0000    0     1.008   -2.628437   -5.481464   -2.730019
   8 H     1.0000    0     1.008    0.297452   -5.881786   -2.856639
   9 O     8.0000    0    15.999   -1.194511   -5.742369   -3.891118
  10 H     1.0000    0     1.008   -5.075547    9.936343    1.567154
  11 H     1.0000    0     1.008   -4.178366    8.963631   -1.054273
  12 O     8.0000    0    15.999   -5.608745    8.947553    0.100390
  13 H     1.0000    0     1.008   -1.010726   -3.345654   -6.426235
  14 H     1.0000    0     1.008   -1.935934   -0.782743   -7.508536
  15 O     8.0000    0    15.999   -0.762128   -2.162191   -7.821180
  16 H     1.0000    0     1.008   -8.148605   -5.467516   -6.684974
  17 H     1.0000    0     1.008  -10.574055   -5.613656   -5.008625
  18 O     8.0000    0    15.999   -8.940863   -4.815311   -5.128592
  19 H     1.0000    0     1.008   -5.992053   -5.226293  -10.428537
  20 H     1.0000    0     1.008   -5.055873   -7.515768   -8.855655
  21 O     8.0000    0    15.999   -6.575463   -6.572821   -9.349089
  22 H     1.0000    0     1.008   -8.559857   -1.668205    2.886043
  23 H     1.0000    0     1.008   -9.542856   -4.216553    3.864161
  24 O     8.0000    0    15.999   -9.490503   -2.442522    4.270934
  25 H     1.0000    0     1.008   -1.046360    5.033015    8.311811
  26 H     1.0000    0     1.008   -1.681219    2.175462    8.271057
  27 O     8.0000    0    15.999   -0.347664    3.367229    7.919313
  28 H     1.0000    0     1.008   -7.553315    0.372873   -1.159458
  29 H     1.0000    0     1.008   -6.329109    1.698737    1.218977
  30 O     8.0000    0    15.999   -6.594842    0.048262    0.386073
  31 H     1.0000    0     1.008    3.065295    4.825310   -3.624283
  32 H     1.0000    0     1.008    0.929855    6.278434   -2.194849
  33 O     8.0000    0    15.999    2.145674    4.885891   -2.015376
  34 H     1.0000    0     1.008    3.193732   12.375888    7.957204
  35 H     1.0000    0     1.008    4.400845    9.787220    8.481554
  36 O     8.0000    0    15.999    2.989972   10.589266    7.646769
  37 H     1.0000    0     1.008   -5.781594    1.566075   -5.960835
  38 H     1.0000    0     1.008   -4.059226    3.617658   -7.197162
  39 O     8.0000    0    15.999   -4.030769    1.977648   -6.405843
  40 H     1.0000    0     1.008    0.251056    3.698884    4.734475
  41 H     1.0000    0     1.008    0.960911    5.912515    2.836503
  42 O     8.0000    0    15.999    0.379051    4.136233    2.924975
  43 H     1.0000    0     1.008    8.208190   -4.553461   -5.624086
  44 H     1.0000    0     1.008    9.221506   -3.829689   -8.288029
  45 O     8.0000    0    15.999    8.349390   -3.162530   -6.834916
  46 H     1.0000    0     1.008   -0.984162    8.572009   -4.880885
  47 H     1.0000    0     1.008   -0.319284   10.335640   -2.638322
  48 O     8.0000    0    15.999   -1.149762    8.761335   -3.039609
  49 H     1.0000    0     1.008   -5.514644   12.385703    5.332248
  50 H     1.0000    0     1.008   -3.480250   10.377888    5.897884
  51 O     8.0000    0    15.999   -4.156904   11.448823    4.558817
  52 H     1.0000    0     1.008   -5.570514    5.943933    1.685617
  53 H     1.0000    0     1.008   -3.471255    4.301759    2.835954
  54 O     8.0000    0    15.999   -5.294897    4.412469    2.696216
  55 H     1.0000    0     1.008   10.997749   -6.697439   -1.472467
  56 H     1.0000    0     1.008   13.890655   -6.659586   -1.797453
  57 O     8.0000    0    15.999   12.571358   -6.353826   -0.579097
  58 H     1.0000    0     1.008  -10.202548    1.197739   -4.905200
  59 H     1.0000    0     1.008   -8.924989   -1.454197   -4.893635
  60 O     8.0000    0    15.999   -8.643328    0.340827   -4.511712
  61 H     1.0000    0     1.008    2.287041   -1.095622   -7.222567
  62 H     1.0000    0     1.008    5.277529   -1.549927   -7.145283
  63 O     8.0000    0    15.999    3.923825   -0.386031   -6.683547
  64 H     1.0000    0     1.008   -2.532394    8.890931   10.061499
  65 H     1.0000    0     1.008   -0.132799    9.267565    8.430987
  66 O     8.0000    0    15.999   -1.799469    8.469065    8.445553
  67 H     1.0000    0     1.008    2.481602    9.625150    4.289790
  68 H     1.0000    0     1.008    3.378613    9.132383    1.553175
  69 O     8.0000    0    15.999    1.937024    8.967204    2.655872
  70 H     1.0000    0     1.008   -1.861414   -8.209152   -6.207934
  71 H     1.0000    0     1.008   -1.109262   -9.570129   -8.683337
  72 O     8.0000    0    15.999   -2.504581   -9.318051   -7.539472
  73 H     1.0000    0     1.008   -2.445024    1.515213   -3.506908
  74 H     1.0000    0     1.008   -3.460824    0.355227   -0.992303
  75 O     8.0000    0    15.999   -1.904969    0.845762   -1.865320
  76 H     1.0000    0     1.008    6.606517   -6.167856   -1.732777
  77 H     1.0000    0     1.008    7.164889   -8.408435   -3.516081
  78 O     8.0000    0    15.999    7.776011   -6.762999   -3.020160
  79 H     1.0000    0     1.008   -5.611982   -3.549221   -0.254263
  80 H     1.0000    0     1.008   -6.766824   -5.178949   -2.364433
  81 O     8.0000    0    15.999   -5.462299   -5.187533   -1.059076
  82 H     1.0000    0     1.008    3.477051   -6.588627    1.233547
  83 H     1.0000    0     1.008    5.648414   -5.151701    2.519680
  84 O     8.0000    0    15.999    4.441155   -5.037494    1.151202
  85 H     1.0000    0     1.008   11.223418   -0.340018   -1.007466
  86 H     1.0000    0     1.008   12.190897   -2.846487    0.145760
  87 O     8.0000    0    15.999   11.898657   -1.073684    0.537706
  88 H     1.0000    0     1.008    0.333675   -1.144029    4.262810
  89 H     1.0000    0     1.008    1.933672   -2.717061    2.352838
  90 O     8.0000    0    15.999    0.843215   -1.242557    2.517019
  91 H     1.0000    0     1.008    1.447748    6.686713   -7.868614
  92 H     1.0000    0     1.008   -1.147857    7.071348   -9.160585
  93 O     8.0000    0    15.999    0.035960    7.861686   -8.023943
  94 H     1.0000    0     1.008    8.504983    2.113494   -3.748410
  95 H     1.0000    0     1.008    9.474684   -0.266451   -5.105273
  96 O     8.0000    0    15.999   10.020997    1.152262   -4.063484

--------------------------------
INTERNAL COORDINATES (ANGSTROEM)
--------------------------------
 Mg     0   0   0     0.000000000000     0.00000000     0.00000000
 H      1   0   0     4.130204902864     0.00000000     0.00000000
 H      2   1   0     1.560747445273   110.69068776     0.00000000
 O      3   2   1     0.964297919498    37.11683434   301.12197822
 H      1   2   3     2.646765901312    69.63668748   245.25864502
 H      5   1   2     1.571025563635    72.31762975   349.71216973
 O      5   1   2     0.968605785277    42.16347737    16.62766876
 H      5   1   2     4.343175419601    77.86741920   260.91732040
 H      8   5   1     1.564174666683    37.54031554   174.95974541
 O      9   8   5     0.963558828652    37.14627914   243.06686944
 H      1   2   3     5.514147833392   104.90027044    62.36388116
 H     11   1   2     1.553924032440    54.95618194    21.73082637
 O     12  11   1     0.972806758961    37.29374596   101.37646749
 H     10   9   8     1.848702912333   114.94120625   126.58910241
 H     14  10   9     1.551481985393   148.31853820   248.26192948
 O     15  14  10     0.972655850093    37.36526644   177.79102851
 H      8   5   1     3.593503510942   146.01314450    63.87800296
 H     17   8   5     1.562132004666   109.69837589   229.89357789
 O     18  17   8     0.964070715724    37.28396269    42.37971293
 H     17   8   5     2.289764200473    95.67271565    49.75009480
 H     20  17   8     1.551137860526    69.59795704    54.67517832
 O     20  17   8     0.964019636311    44.48325119    88.70459317
 H     19  18  17     4.560875605273    97.95557694   193.32477386
 H     23  19  18     1.535260150316    88.72774798    44.37045006
 O     24  23  19     0.963537483635    37.79358243   206.72342920
 H      1   2   3     4.851423020121   149.74676365    16.19698570
 H     26   1   2     1.549171772809    72.16802025   183.30747878
 O     27  26   1     0.964555530040    37.42224969    50.84694726
 H     23  19  18     2.456271974386    50.18479451   225.50977352
 H     29  23  19     1.579888907287    65.78711625   199.95611754
 O     29  23  19     0.977576690666    46.05855864   238.08163488
 H      4   3   2     1.774370726964   118.21871208   111.36245164
 H     32   4   3     1.562189332332   135.75782641   112.77282754
 O     32   4   3     0.981185509033   170.40875805   153.09852847
 H     26   1   2     4.490900610553    98.43746379   347.80395774
 H     35  26   1     1.536735258560    55.16986307   282.31921559
 O     35  26   1     0.965644499725    26.38722659   321.20002498
 H     15  14  10     2.521318693629   124.45280736   346.66827309
 H     38  15  14     1.561211729824    74.66156412   156.27050874
 O     39  38  15     0.963717125365    36.94787942   335.33841952
 H     28  27  26     1.723823270406   112.93594625   250.81949769
 H     41  28  27     1.588091522079   137.46698587   141.94254278
 O     41  28  27     0.987443226300   169.91389923    92.44507706
 H      6   5   1     3.348963163711    79.93553036   180.16203808
 H     44   6   5     1.556109473461   111.40827550   192.03779821
 O     45  44   6     0.963803386670    37.09737105    16.38307512
 H     33  32   4     2.125866182031   107.57284230     1.95492871
 H     47  33  32     1.550185864708    73.96272136   230.21948989
 O     48  47  33     0.965535880328    37.70951363   306.20815452
 H     11   1   2     2.388231846476   127.27277458   223.14900906
 H     50  11   1     1.541897962840    73.74229153     1.11689167
 O     50  11   1     0.964119439139    45.11048613    30.15002625
 H     13  12  11     1.797344492613   106.98532097   258.84338834
 H     53  13  12     1.536154862058   133.89619091    42.09578560
 O     54  53  13     0.969630400741    38.36016794   172.56921179
 H     44   6   5     2.879726560030   110.27760581   339.71068710
 H     56  44   6     1.540619674412   114.77638962   230.90023719
 O     57  56  44     0.963977920308    37.61608728   136.92762460
 H     38  15  14     2.413121723033   144.87249281   311.24689965
 H     59  38  15     1.557710563539    69.69113595    19.30863544
 O     59  38  15     0.964250184965    42.13188355    50.44623017
 H     16  15  14     1.738517530772   108.54631482   252.14230605
 H     62  16  15     1.601177220384   150.83283831   182.02337026
 O     63  62  16     0.975807029105    35.51954510   188.67469626
 H     26   1   2     2.375599963186   137.62814251    34.94104989
 H     65  26   1     1.548101568456    67.78356798   307.50238702
 O     65  26   1     0.965140363293    47.38075157   345.39255490
 H     37  35  26     1.867723452398   116.44463892   109.12357458
 H     68  37  35     1.546113032906   153.21602949    74.56732657
 O     69  68  37     0.964410459556    37.41226874   173.99530408
 H     10   9   8     1.825270928756   119.02997069   232.55068100
 H     71  10   9     1.546937431513   148.42768485   292.99306275
 O     72  71  10     0.964044738135    37.51736854   198.05639798
 H     40  39  38     1.765601406377   120.64834700   244.28435891
 H     74  40  39     1.560907480689   129.16311968   126.55067817
 O     75  74  40     0.979116429793    37.24289531   166.20035077
 H     56  44   6     2.344627644030    53.13347039    47.71983118
 H     77  56  44     1.543905272324    75.78512075    74.06143202
 O     78  77  56     0.965203294178    37.35808408   317.74865012
 H     31  29  23     2.002355569345    99.22132415    81.66356641
 H     80  31  29     1.537575543964   123.56763759   347.78634924
 O     80  31  29     0.969159401673   161.09694052   358.42511946
 H     77  56  44     2.292606834049   131.61104910   190.18185587
 H     83  77  56     1.536775556255    73.44606590    43.63418431
 O     83  77  56     0.967438107956    60.38489579    82.00257318
 H     58  57  56     3.269198596413   105.96393386   267.90531083
 H     86  58  57     1.547183404481    20.92359097   246.45489524
 O     86  58  57     0.973135163819    58.21469930   242.76945904
 H     41  28  27     2.575255772796    89.80290474   312.16491231
 H     89  41  28     1.559270535054   127.10652979   211.32603318
 O     89  41  28     0.963789395552    98.71311078   185.69255053
 H      4   3   2     1.885127546935   117.93778227   218.41732823
 H     92   4   3     1.547723491115   154.00817773   134.31218569
 O     93  92   4     0.963918072902    37.31280859   162.97312036
 H     86  58  57     2.420509308561   133.89726801    84.11567479
 H     95  86  58     1.537853057267    69.03477180   331.17955693
 O     95  86  58     0.964429852682    47.64866117   293.90785471

---------------------------
INTERNAL COORDINATES (A.U.)
---------------------------
 Mg     0   0   0     0.000000000000     0.00000000     0.00000000
 H      1   0   0     7.804956143393     0.00000000     0.00000000
 H      2   1   0     2.949385235783   110.69068776     0.00000000
 O      3   2   1     1.822258979362    37.11683434   301.12197822
 H      1   2   3     5.001662694081    69.63668748   245.25864502
 H      5   1   2     2.968808064659    72.31762975   349.71216973
 O      5   1   2     1.830399665905    42.16347737    16.62766876
 H      5   1   2     8.207412094625    77.86741920   260.91732040
 H      8   5   1     2.955861745649    37.54031554   174.95974541
 O      9   8   5     1.820862300075    37.14627914   243.06686944
 H      1   2   3    10.420229267067   104.90027044    62.36388116
 H     11   1   2     2.936490854230    54.95618194    21.73082637
 O     12  11   1     1.838338355665    37.29374596   101.37646749
 H     10   9   8     3.493542207293   114.94120625   126.58910241
 H     14  10   9     2.931876054105   148.31853820   248.26192948
 O     15  14  10     1.838053179233    37.36526644   177.79102851
 H      8   5   1     6.790737496965   146.01314450    63.87800296
 H     17   8   5     2.952001673852   109.69837589   229.89357789
 O     18  17   8     1.821829626451    37.28396269    42.37971293
 H     17   8   5     4.327027250151    95.67271565    49.75009480
 H     20  17   8     2.931225752351    69.59795704    54.67517832
 O     20  17   8     1.821733100351    44.48325119    88.70459317
 H     19  18  17     8.618805824848    97.95557694   193.32477386
 H     23  19  18     2.901221228420    88.72774798    44.37045006
 O     24  23  19     1.820821963838    37.79358243   206.72342920
 H      1   2   3     9.167860867830   149.74676365    16.19698570
 H     26   1   2     2.927510385011    72.16802025   183.30747878
 O     27  26   1     1.822745792734    37.42224969    50.84694726
 H     23  19  18     4.641681342016    50.18479451   225.50977352
 H     29  23  19     2.985557356793    65.78711625   199.95611754
 O     29  23  19     1.847352220263    46.05855864   238.08163488
 H      4   3   2     3.353074734008   118.21871208   111.36245164
 H     32   4   3     2.952110007441   135.75782641   112.77282754
 O     32   4   3     1.854171898645   170.40875805   153.09852847
 H     26   1   2     8.486572248604    98.43746379   347.80395774
 H     35  26   1     2.904008779019    55.16986307   282.31921559
 O     35  26   1     1.824803647208    26.38722659   321.20002498
 H     15  14  10     4.764601827294   124.45280736   346.66827309
 H     38  15  14     2.950262606433    74.66156412   156.27050874
 O     39  38  15     1.821161437509    36.94787942   335.33841952
 H     28  27  26     3.257553884348   112.93594625   250.81949769
 H     41  28  27     3.001058052331   137.46698587   141.94254278
 O     41  28  27     1.865997270502   169.91389923    92.44507706
 H      6   5   1     6.328623212005    79.93553036   180.16203808
 H     44   6   5     2.940620739242   111.40827550   192.03779821
 O     45  44   6     1.821324447753    37.09737105    16.38307512
 H     33  32   4     4.017304881402   107.57284230     1.95492871
 H     47  33  32     2.929426740975    73.96272136   230.21948989
 O     48  47  33     1.824598386294    37.70951363   306.20815452
 H     11   1   2     4.513104134148   127.27277458   223.14900906
 H     50  11   1     2.913764876218    73.74229153     1.11689167
 O     50  11   1     1.821921700362    45.11048613    30.15002625
 H     13  12  11     3.396488859350   106.98532097   258.84338834
 H     53  13  12     2.902911988582   133.89619091    42.09578560
 O     54  53  13     1.832335908525    38.36016794   172.56921179
 H     44   6   5     5.441894539035   110.27760581   339.71068710
 H     56  44   6     2.911349261170   114.77638962   230.90023719
 O     57  56  44     1.821654268529    37.61608728   136.92762460
 H     38  15  14     4.560139184348   144.87249281   311.24689965
 H     59  38  15     2.943646361005    69.69113595    19.30863544
 O     59  38  15     1.822168774167    42.13188355    50.44623017
 H     16  15  14     3.285322012180   108.54631482   252.14230605
 H     62  16  15     3.025786438399   150.83283831   182.02337026
 O     63  62  16     1.844008044563    35.51954510   188.67469626
 H     26   1   2     4.489233334176   137.62814251    34.94104989
 H     65  26   1     2.925487991876    67.78356798   307.50238702
 O     65  26   1     1.823850967417    47.38075157   345.39255490
 H     37  35  26     3.529485818934   116.44463892   109.12357458
 H     68  37  35     2.921730204278   153.21602949    74.56732657
 O     69  68  37     1.822471649250    37.41226874   173.99530408
 H     10   9   8     3.449262175557   119.02997069   232.55068100
 H     71  10   9     2.923288091872   148.42768485   292.99306275
 O     72  71  10     1.821780535923    37.51736854   198.05639798
 H     40  39  38     3.336503119718   120.64834700   244.28435891
 H     74  40  39     2.949687658892   129.16311968   126.55067817
 O     75  74  40     1.850261905531    37.24289531   166.20035077
 H     56  44   6     4.430704133237    53.13347039    47.71983118
 H     77  56  44     2.917558141409    75.78512075    74.06143202
 O     78  77  56     1.823969889556    37.35808408   317.74865012
 H     31  29  23     3.783903648794    99.22132415    81.66356641
 H     80  31  29     2.905596688307   123.56763759   347.78634924
 O     80  31  29     1.831445849277   161.09694052   358.42511946
 H     77  56  44     4.332399049109   131.61104910   190.18185587
 H     83  77  56     2.904084930627    73.44606590    43.63418431
 O     83  77  56     1.828193075555    60.38489579    82.00257318
 H     58  57  56     6.177890024621   105.96393386   267.90531083
 H     86  58  57     2.923752913417    20.92359097   246.45489524
 O     86  58  57     1.838958950907    58.21469930   242.76945904
 H     41  28  27     4.866528135383    89.80290474   312.16491231
 H     89  41  28     2.946594279946   127.10652979   211.32603318
 O     89  41  28     1.821298008371    98.71311078   185.69255053
 H      4   3   2     3.562374791218   117.93778227   218.41732823
 H     92   4   3     2.924773529244   154.00817773   134.31218569
 O     93  92   4     1.821541173322    37.31280859   162.97312036
 H     86  58  57     4.574099697787   133.89726801    84.11567479
 H     95  86  58     2.906121112448    69.03477180   331.17955693
 O     95  86  58     1.822508296947    47.64866117   293.90785471

---------------------
BASIS SET INFORMATION
---------------------
There are 3 groups of distinct atoms

 Group   1 Type Mg  : 14s9p3d contracted to 5s5p3d pattern {73211/51111/111}
 Group   2 Type H   : 5s2p contracted to 3s2p pattern {311/11}
 Group   3 Type O   : 12s7p3d1f contracted to 6s4p3d1f pattern {621111/4111/111/1}

Atom   0Mg   basis set group =>   1
Atom   1H    basis set group =>   2
Atom   2H    basis set group =>   2
Atom   3O    basis set group =>   3
Atom   4H    basis set group =>   2
Atom   5H    basis set group =>   2
Atom   6O    basis set group =>   3
Atom   7H    basis set group =>   2
Atom   8H    basis set group =>   2
Atom   9O    basis set group =>   3
Atom  10H    basis set group =>   2
Atom  11H    basis set group =>   2
Atom  12O    basis set group =>   3
Atom  13H    basis set group =>   2
Atom  14H    basis set group =>   2
Atom  15O    basis set group =>   3
Atom  16H    basis set group =>   2
Atom  17H    basis set group =>   2
Atom  18O    basis set group =>   3
Atom  19H    basis set group =>   2
Atom  20H    basis set group =>   2
Atom  21O    basis set group =>   3
Atom  22H    basis set group =>   2
Atom  23H    basis set group =>   2
Atom  24O    basis set group =>   3
Atom  25H    basis set group =>   2
Atom  26H    basis set group =>   2
Atom  27O    basis set group =>   3
Atom  28H    basis set group =>   2
Atom  29H    basis set group =>   2
Atom  30O    basis set group =>   3
Atom  31H    basis set group =>   2
Atom  32H    basis set group =>   2
Atom  33O    basis set group =>   3
Atom  34H    basis set group =>   2
Atom  35H    basis set group =>   2
Atom  36O    basis set group =>   3
Atom  37H    basis set group =>   2
Atom  38H    basis set group =>   2
Atom  39O    basis set group =>   3
Atom  40H    basis set group =>   2
Atom  41H    basis set group =>   2
Atom  42O    basis set group =>   3
Atom  43H    basis set group =>   2
Atom  44H    basis set group =>   2
Atom  45O    basis set group =>   3
Atom  46H    basis set group =>   2
Atom  47H    basis set group =>   2
Atom  48O    basis set group =>   3
Atom  49H    basis set group =>   2
Atom  50H    basis set group =>   2
Atom  51O    basis set group =>   3
Atom  52H    basis set group =>   2
Atom  53H    basis set group =>   2
Atom  54O    basis set group =>   3
Atom  55H    basis set group =>   2
Atom  56H    basis set group =>   2
Atom  57O    basis set group =>   3
Atom  58H    basis set group =>   2
Atom  59H    basis set group =>   2
Atom  60O    basis set group =>   3
Atom  61H    basis set group =>   2
Atom  62H    basis set group =>   2
Atom  63O    basis set group =>   3
Atom  64H    basis set group =>   2
Atom  65H    basis set group =>   2
Atom  66O    basis set group =>   3
Atom  67H    basis set group =>   2
Atom  68H    basis set group =>   2
Atom  69O    basis set group =>   3
Atom  70H    basis set group =>   2
Atom  71H    basis set group =>   2
Atom  72O    basis set group =>   3
Atom  73H    basis set group =>   2
Atom  74H    basis set group =>   2
Atom  75O    basis set group =>   3
Atom  76H    basis set group =>   2
Atom  77H    basis set group =>   2
Atom  78O    basis set group =>   3
Atom  79H    basis set group =>   2
Atom  80H    basis set group =>   2
Atom  81O    basis set group =>   3
Atom  82H    basis set group =>   2
Atom  83H    basis set group =>   2
Atom  84O    basis set group =>   3
Atom  85H    basis set group =>   2
Atom  86H    basis set group =>   2
Atom  87O    basis set group =>   3
Atom  88H    basis set group =>   2
Atom  89H    basis set group =>   2
Atom  90O    basis set group =>   3
Atom  91H    basis set group =>   2
Atom  92H    basis set group =>   2
Atom  93O    basis set group =>   3
Atom  94H    basis set group =>   2
Atom  95H    basis set group =>   2
Atom  96O    basis set group =>   3
---------------------------------
AUXILIARY/J BASIS SET INFORMATION
---------------------------------
There are 3 groups of distinct atoms

 Group   1 Type Mg  : 14s5p5d2f1g contracted to 8s4p4d1f1g pattern {71111111/2111/2111/2/1}
 Group   2 Type H   : 5s2p1d contracted to 3s1p1d pattern {311/2/1}
 Group   3 Type O   : 12s5p4d2f1g contracted to 6s4p3d1f1g pattern {711111/2111/211/2/1}

Atom   0Mg   basis set group =>   1
Atom   1H    basis set group =>   2
Atom   2H    basis set group =>   2
Atom   3O    basis set group =>   3
Atom   4H    basis set group =>   2
Atom   5H    basis set group =>   2
Atom   6O    basis set group =>   3
Atom   7H    basis set group =>   2
Atom   8H    basis set group =>   2
Atom   9O    basis set group =>   3
Atom  10H    basis set group =>   2
Atom  11H    basis set group =>   2
Atom  12O    basis set group =>   3
Atom  13H    basis set group =>   2
Atom  14H    basis set group =>   2
Atom  15O    basis set group =>   3
Atom  16H    basis set group =>   2
Atom  17H    basis set group =>   2
Atom  18O    basis set group =>   3
Atom  19H    basis set group =>   2
Atom  20H    basis set group =>   2
Atom  21O    basis set group =>   3
Atom  22H    basis set group =>   2
Atom  23H    basis set group =>   2
Atom  24O    basis set group =>   3
Atom  25H    basis set group =>   2
Atom  26H    basis set group =>   2
Atom  27O    basis set group =>   3
Atom  28H    basis set group =>   2
Atom  29H    basis set group =>   2
Atom  30O    basis set group =>   3
Atom  31H    basis set group =>   2
Atom  32H    basis set group =>   2
Atom  33O    basis set group =>   3
Atom  34H    basis set group =>   2
Atom  35H    basis set group =>   2
Atom  36O    basis set group =>   3
Atom  37H    basis set group =>   2
Atom  38H    basis set group =>   2
Atom  39O    basis set group =>   3
Atom  40H    basis set group =>   2
Atom  41H    basis set group =>   2
Atom  42O    basis set group =>   3
Atom  43H    basis set group =>   2
Atom  44H    basis set group =>   2
Atom  45O    basis set group =>   3
Atom  46H    basis set group =>   2
Atom  47H    basis set group =>   2
Atom  48O    basis set group =>   3
Atom  49H    basis set group =>   2
Atom  50H    basis set group =>   2
Atom  51O    basis set group =>   3
Atom  52H    basis set group =>   2
Atom  53H    basis set group =>   2
Atom  54O    basis set group =>   3
Atom  55H    basis set group =>   2
Atom  56H    basis set group =>   2
Atom  57O    basis set group =>   3
Atom  58H    basis set group =>   2
Atom  59H    basis set group =>   2
Atom  60O    basis set group =>   3
Atom  61H    basis set group =>   2
Atom  62H    basis set group =>   2
Atom  63O    basis set group =>   3
Atom  64H    basis set group =>   2
Atom  65H    basis set group =>   2
Atom  66O    basis set group =>   3
Atom  67H    basis set group =>   2
Atom  68H    basis set group =>   2
Atom  69O    basis set group =>   3
Atom  70H    basis set group =>   2
Atom  71H    basis set group =>   2
Atom  72O    basis set group =>   3
Atom  73H    basis set group =>   2
Atom  74H    basis set group =>   2
Atom  75O    basis set group =>   3
Atom  76H    basis set group =>   2
Atom  77H    basis set group =>   2
Atom  78O    basis set group =>   3
Atom  79H    basis set group =>   2
Atom  80H    basis set group =>   2
Atom  81O    basis set group =>   3
Atom  82H    basis set group =>   2
Atom  83H    basis set group =>   2
Atom  84O    basis set group =>   3
Atom  85H    basis set group =>   2
Atom  86H    basis set group =>   2
Atom  87O    basis set group =>   3
Atom  88H    basis set group =>   2
Atom  89H    basis set group =>   2
Atom  90O    basis set group =>   3
Atom  91H    basis set group =>   2
Atom  92H    basis set group =>   2
Atom  93O    basis set group =>   3
Atom  94H    basis set group =>   2
Atom  95H    basis set group =>   2
Atom  96O    basis set group =>   3

Checking for AutoStart:
The File: mg_32w_2_freq.gbw exists
Trying to determine its content:
     ... Fine, the file contains calculation information
     ... Fine, the calculation information was read
     ... Fine, the file contains a basis set
     ... Fine, the basis set was read
     ... Fine, the file contains a geometry
     ... Fine, the geometry was read
     ... Fine, the file contains a set of orbitals
     ... Fine, the orbitals can be read
     => possible old guess file was deleted
     => GBW file was renamed to GES file
     => GES file is set as startup file
     => Guess is set to MORead
     ... now leaving AutoStart



           ************************************************************
           *        Program running with 6 parallel MPI-processes     *
           *              working on a common directory               *
           ************************************************************
------------------------------------------------------------------------------
                           ORCA GTO INTEGRAL CALCULATION
                           -- RI-GTO INTEGRALS CHOSEN --
------------------------------------------------------------------------------
------------------------------------------------------------------------------
                   ___                                                        
                  /   \      - P O W E R E D   B Y -                         
                 /     \                                                     
                 |  |  |   _    _      __       _____    __    __             
                 |  |  |  | |  | |    /  \     |  _  \  |  |  /  |          
                  \  \/   | |  | |   /    \    | | | |  |  | /  /          
                 / \  \   | |__| |  /  /\  \   | |_| |  |  |/  /          
                |  |  |   |  __  | /  /__\  \  |    /   |      \           
                |  |  |   | |  | | |   __   |  |    \   |  |\   \          
                \     /   | |  | | |  |  |  |  | |\  \  |  | \   \       
                 \___/    |_|  |_| |__|  |__|  |_| \__\ |__|  \__/        
                                                                              
                      - O R C A' S   B I G   F R I E N D -                    
                                      &                                       
                       - I N T E G R A L  F E E D E R -                       
                                                                              
 v1 FN, 2020, v2 2021                                                         
------------------------------------------------------------------------------


Reading SHARK input file mg_32w_2_freq.SHARKINP.tmp ... ok
----------------------
SHARK INTEGRAL PACKAGE
----------------------

Number of atoms                             ...     97
Number of basis functions                   ...   1891
Number of shells                            ...    781
Maximum angular momentum                    ...      3
Integral batch strategy                     ... SHARK/LIBINT Hybrid
RI-J (if used) integral strategy            ... SPLIT-RIJ (Revised 2003 algorithm where possible)
Printlevel                                  ...      1
Contraction scheme used                     ... SEGMENTED contraction
Coulomb Range Separation                    ... NOT USED
Exchange Range Separation                   ... Long Range
   Mu parameter                             ...  0.300000
   Scaling (regular/separated)              ...  0.167000  0.833000
Finite Nucleus Model                        ... NOT USED
Auxiliary Coulomb fitting basis             ... AVAILABLE
   # of basis functions in Aux-J            ...   2328
   # of shells in Aux-J                     ...    818
   Maximum angular momentum in Aux-J        ...      4
Auxiliary J/K fitting basis                 ... NOT available
Auxiliary Correlation fitting basis         ... NOT available
Auxiliary 'external' fitting basis          ... NOT available
Integral threshold                          ...     2.500000e-11
Primitive cut-off                           ...     2.500000e-12
Primitive pair pre-selection threshold      ...     2.500000e-12

Calculating pre-screening integrals         ... done (  0.1 sec) Dimension = 781
Organizing shell pair data                  ... done (  0.9 sec)
Shell pair information
Total number of shell pairs                 ...    305371
Shell pairs after pre-screening             ...    182332
Total number of primitive shell pairs       ...    733586
Primitive shell pairs kept                  ...    296225
          la=0 lb=0:  41233 shell pairs
          la=1 lb=0:  65418 shell pairs
          la=1 lb=1:  24941 shell pairs
          la=2 lb=0:  20834 shell pairs
          la=2 lb=1:  16746 shell pairs
          la=2 lb=2:   2681 shell pairs
          la=3 lb=0:   4831 shell pairs
          la=3 lb=1:   4351 shell pairs
          la=3 lb=2:   1204 shell pairs
          la=3 lb=3:     93 shell pairs

Calculating one electron integrals          ... done (  0.2 sec)
Calculating RI/J V-Matrix + Cholesky decomp.... done (  0.2 sec)
Calculating Nuclear repulsion               ... done (  0.0 sec) ENN=   5339.945726438020 Eh

SHARK setup successfully completed in   2.2 seconds

Maximum memory used throughout the entire GTOINT-calculation: 243.0 MB


           ************************************************************
           *        Program running with 6 parallel MPI-processes     *
           *              working on a common directory               *
           ************************************************************
-------------------------------------------------------------------------------
                                 ORCA SCF
-------------------------------------------------------------------------------

------------
SCF SETTINGS
------------
Hamiltonian:
 Density Functional     Method          .... DFT(GTOs)
 Exchange Functional    Exchange        .... WB97X-V
 Correlation Functional Correlation     .... WB97X-V
 Gradients option       PostSCFGGA      .... off
 Hybrid DFT is turned on
   Fraction HF Exchange ScalHFX         ....  0.167000
   Scaling of DF-GGA-X  ScalDFX         ....  0.000000
   Scaling of DF-GGA-C  ScalDFC         ....  1.000000
   Scaling of DF-LDA-C  ScalLDAC        ....  1.000000
   Perturbative correction              ....  0.000000
   Density functional embedding theory  .... OFF
 Long-range corrected/Screened/Range-Separated Hybrid DFT is turned on
   Amount of maximum screened exact exchange              ....  0.833000
   Range separation parameter mu (erf(mu*r12)/r12)        ....  0.300000
 RI-approximation to the Coulomb term is turned on
   Number of AuxJ basis functions       .... 2328
   RIJ-COSX (HFX calculated with COS-X)).... on


General Settings:
 Integral files         IntName         .... mg_32w_2_freq
 Hartree-Fock type      HFTyp           .... RHF
 Total Charge           Charge          ....    2
 Multiplicity           Mult            ....    1
 Number of Electrons    NEL             ....  330
 Basis Dimension        Dim             .... 1891
 Nuclear Repulsion      ENuc            ....   5339.9457264380 Eh

Convergence Acceleration:
 DIIS                   CNVDIIS         .... on
   Start iteration      DIISMaxIt       ....    12
   Startup error        DIISStart       ....  0.200000
   # of expansion vecs  DIISMaxEq       ....     5
   Bias factor          DIISBfac        ....   1.050
   Max. coefficient     DIISMaxC        ....  10.000
 Trust-Rad. Augm. Hess. CNVTRAH         .... auto
   Auto Start mean grad. ratio tolernc. ....  1.125000
   Auto Start start iteration           ....     1
   Auto Start num. interpolation iter.  ....    10
   Max. Number of Micro iterations      ....    16
   Max. Number of Macro iterations      .... Maxiter - #DIIS iter
   Number of Davidson start vectors     ....     2
   Converg. threshold I  (grad. norm)   ....   1.000e-05
   Converg. threshold II (energy diff.) ....   1.000e-08
   Grad. Scal. Fac. for Micro threshold ....   0.100
   Minimum threshold for Micro iter.    ....   0.010
   NR start threshold (gradient norm)   ....   0.001
   Initial trust radius                 ....   0.400
   Minimum AH scaling param. (alpha)    ....   1.000
   Maximum AH scaling param. (alpha)    .... 1000.000
   Orbital update algorithm             .... Taylor
   White noise on init. David. guess    .... on
   Maximum white noise                  ....   0.010
   Quad. conv. algorithm                .... NR
 SOSCF                  CNVSOSCF        .... on
   Start iteration      SOSCFMaxIt      ....   150
   Startup grad/error   SOSCFStart      ....  0.003300
 Level Shifting         CNVShift        .... on
   Level shift para.    LevelShift      ....    0.2500
   Turn off err/grad.   ShiftErr        ....    0.0010
 Zerner damping         CNVZerner       .... off
 Static damping         CNVDamp         .... on
   Fraction old density DampFac         ....    0.7000
   Max. Damping (<1)    DampMax         ....    0.9800
   Min. Damping (>=0)   DampMin         ....    0.0000
   Turn off err/grad.   DampErr         ....    0.1000
 Fernandez-Rico         CNVRico         .... off

SCF Procedure:
 Maximum # iterations   MaxIter         ....   125
 SCF integral mode      SCFMode         .... Direct
   Integral package                     .... SHARK and LIBINT hybrid scheme
 Reset frequency        DirectResetFreq ....    20
 Integral Threshold     Thresh          ....  2.500e-11 Eh
 Primitive CutOff       TCut            ....  2.500e-12 Eh

Convergence Tolerance:
 Convergence Check Mode ConvCheckMode   .... Total+1el-Energy
 Convergence forced     ConvForced      .... 0
 Energy Change          TolE            ....  1.000e-08 Eh
 1-El. energy change                    ....  1.000e-05 Eh
 Orbital Gradient       TolG            ....  1.000e-05
 Orbital Rotation angle TolX            ....  1.000e-05
 DIIS Error             TolErr          ....  5.000e-07


Diagonalization of the overlap matrix:
Smallest eigenvalue                        ... 1.175e-06
Time for diagonalization                   ...    0.269 sec
Threshold for overlap eigenvalues          ... 1.000e-08
Number of eigenvalues below threshold      ... 0
Time for construction of square roots      ...    0.262 sec
Total time needed                          ...    0.542 sec

---------------------
INITIAL GUESS: MOREAD
---------------------
Guess MOs are being read from file: mg_32w_2_freq.ges
Input Geometry matches current geometry (good)
Input basis set matches current basis set (good)
MOs were renormalized
MOs were reorthogonalized (Cholesky)
                      ------------------
                      INITIAL GUESS DONE (   1.4 sec)
                      ------------------
-------------------
DFT GRID GENERATION
-------------------

General Integration Accuracy     IntAcc      ... 4.388
Radial Grid Type                 RadialGrid  ... OptM3 with GC (2021)
Angular Grid (max. ang.)         AngularGrid ... 4 (Lebedev-302)
Angular grid pruning method      GridPruning ... 4 (adaptive)
Weight generation scheme         WeightScheme... Becke
Basis function cutoff            BFCut       ... 1.0000e-11
Integration weight cutoff        WCut        ... 1.0000e-14
Angular grids for H and He will be reduced by one unit
Partially contracted basis set               ... off
Rotationally invariant grid construction     ... off

Total number of grid points                  ...   423838
Total number of batches                      ...     6669
Average number of points per batch           ...       63
Average number of grid points per atom       ...     4369
Time for grid setup =    2.595 sec

--------------------
COSX GRID GENERATION
--------------------

GRIDX 1
-------
General Integration Accuracy     IntAcc      ... 3.816
Radial Grid Type                 RadialGrid  ... OptM3 with GC (2021)
Angular Grid (max. ang.)         AngularGrid ... 1 (Lebedev-50)
Angular grid pruning method      GridPruning ... 4 (adaptive)
Weight generation scheme         WeightScheme... Becke
Basis function cutoff            BFCut       ... 1.0000e-11
Integration weight cutoff        WCut        ... 1.0000e-14
Angular grids for H and He will be reduced by one unit
Partially contracted basis set               ... on
Rotationally invariant grid construction     ... off

Total number of grid points                  ...    52665
Total number of batches                      ...      865
Average number of points per batch           ...       60
Average number of grid points per atom       ...      543
UseSFitting                                  ... on

GRIDX 2
-------
General Integration Accuracy     IntAcc      ... 4.020
Radial Grid Type                 RadialGrid  ... OptM3 with GC (2021)
Angular Grid (max. ang.)         AngularGrid ... 2 (Lebedev-110)
Angular grid pruning method      GridPruning ... 4 (adaptive)
Weight generation scheme         WeightScheme... Becke
Basis function cutoff            BFCut       ... 1.0000e-11
Integration weight cutoff        WCut        ... 1.0000e-14
Angular grids for H and He will be reduced by one unit
Partially contracted basis set               ... on
Rotationally invariant grid construction     ... off

Total number of grid points                  ...   118122
Total number of batches                      ...     1894
Average number of points per batch           ...       62
Average number of grid points per atom       ...     1218
UseSFitting                                  ... on

GRIDX 3
-------
General Integration Accuracy     IntAcc      ... 4.338
Radial Grid Type                 RadialGrid  ... OptM3 with GC (2021)
Angular Grid (max. ang.)         AngularGrid ... 3 (Lebedev-194)
Angular grid pruning method      GridPruning ... 4 (adaptive)
Weight generation scheme         WeightScheme... Becke
Basis function cutoff            BFCut       ... 1.0000e-11
Integration weight cutoff        WCut        ... 1.0000e-14
Angular grids for H and He will be reduced by one unit
Partially contracted basis set               ... on
Rotationally invariant grid construction     ... off

Total number of grid points                  ...   261417
Total number of batches                      ...     4132
Average number of points per batch           ...       63
Average number of grid points per atom       ...     2695
UseSFitting                                  ... on

Time for X-Grid setup             =    6.492 sec


--------------------
CPCM SOLVATION MODEL
--------------------
CPCM parameters:
  Epsilon                                         ...      80.4000
  Refrac                                          ...       1.3300
  Rsolv                                           ...       1.3000
  Surface type                                    ... GAUSSIAN VDW
  Epsilon function type                           ...         CPCM
Radii:
 Radius for Mg used is    3.9231 Bohr (=   2.0760 Ang.)
 Radius for H  used is    2.4944 Bohr (=   1.3200 Ang.)
 Radius for O  used is    3.4469 Bohr (=   1.8240 Ang.)
Calculating surface                               ...        done! (  0.0s)
GEPOL surface points                              ...         6021
GEPOL Volume                                      ...    5145.6576
GEPOL Surface-area                                ...    3130.2952
Calculating surface distance matrix               ...        done! (  0.2s)
Performing Cholesky decomposition & store         ...        done! (  0.9s)
Overall time for CPCM initialization              ...                 1.1s
--------------
SCF ITERATIONS
--------------
ITER       Energy         Delta-E        Max-DP      RMS-DP      [F,P]     Damp
               ***  Starting incremental Fock matrix formation  ***
                      *** Initiating the SOSCF procedure ***
                      *** Re-Reading the Fockian *** 
                      *** Removing any level shift *** 
ITER      Energy       Delta-E        Grad      Rot      Max-DP    RMS-DP
  0  -2647.74767713 -2647.7476771344  0.000000  0.000000  0.004407  0.000005
               *** Restarting incremental Fock matrix formation ***
                  ***Gradient check signals convergence***
              ***Rediagonalizing the Fockian in SOSCF/NRSCF***

               *****************************************************
               *                     SUCCESS                       *
               *           SCF CONVERGED AFTER   1 CYCLES          *
               *****************************************************

Old exchange energy                            =    -94.053761075 Eh
New exchange energy                            =    -94.053682368 Eh
Exchange energy change after final integration =      0.000078707 Eh
Total energy after final integration           =  -2647.747598426 Eh
Final COS-X integration done in                =   245.253 sec

----------------
TOTAL SCF ENERGY
----------------

Total Energy       :        -2647.74759843 Eh          -72048.87505 eV

Components:
Nuclear Repulsion  :         5339.94572644 Eh          145307.31050 eV
Electronic Energy  :        -7987.69332486 Eh         -217356.18554 eV
One Electron Energy:       -14242.05099589 Eh         -387545.91005 eV
Two Electron Energy:         6254.35767102 Eh          170189.72451 eV
Max COSX asymmetry :            0.00000823 Eh               0.00022 eV
CPCM Dielectric    :           -0.36665628 Eh              -9.97722 eV

Virial components:
Potential Energy   :        -5284.14566803 Eh         -143788.91371 eV
Kinetic Energy     :         2636.39806960 Eh           71740.03867 eV
Virial Ratio       :            2.00430494


DFT components:
N(Alpha)           :      165.000138245196 electrons
N(Beta)            :      165.000138245196 electrons
N(Total)           :      330.000276490393 electrons
E(X)               :     -207.467633760515 Eh       
E(C)               :      -14.110692910755 Eh       
E(XC)              :     -221.578326671269 Eh       
DFET-embed. en.    :        0.000000000000 Eh       
CPCM Solvation Model Properties:
Surface-charge          :           -2.04043424
Charge-correction       :            0.00688993 Eh               0.18748 eV
Free-energy (cav+disp)  :  This term is not implemented in the current solvation scheme

---------------
SCF CONVERGENCE
---------------

  Last Energy change         ...    1.4729e-09  Tolerance :   1.0000e-08
  Last MAX-Density change    ...    6.6613e-15  Tolerance :   1.0000e-07
  Last RMS-Density change    ...    1.3058e-17  Tolerance :   5.0000e-09
  Last Orbital Gradient      ...    8.0696e-08  Tolerance :   1.0000e-05
  Last Orbital Rotation      ...    1.5160e-07  Tolerance :   1.0000e-05

             **** THE GBW FILE WAS UPDATED (mg_32w_2_freq.gbw) ****
             **** DENSITY mg_32w_2_freq.scfp WAS UPDATED ****
             **** ENERGY FILE WAS UPDATED (mg_32w_2_freq.en.tmp) ****
             **** THE GBW FILE WAS UPDATED (mg_32w_2_freq.gbw) ****
             **** DENSITY mg_32w_2_freq.scfp WAS UPDATED ****
----------------
ORBITAL ENERGIES
----------------

  NO   OCC          E(Eh)            E(eV) 
   0   2.0000     -46.838528     -1274.5411 
   1   2.0000     -19.259052      -524.0654 
   2   2.0000     -19.255005      -523.9553 
   3   2.0000     -19.249142      -523.7958 
   4   2.0000     -19.242721      -523.6211 
   5   2.0000     -19.241028      -523.5750 
   6   2.0000     -19.236605      -523.4546 
   7   2.0000     -19.235136      -523.4147 
   8   2.0000     -19.234252      -523.3906 
   9   2.0000     -19.233943      -523.3822 
  10   2.0000     -19.233114      -523.3597 
  11   2.0000     -19.232319      -523.3380 
  12   2.0000     -19.231977      -523.3287 
  13   2.0000     -19.231843      -523.3251 
  14   2.0000     -19.231619      -523.3190 
  15   2.0000     -19.229350      -523.2572 
  16   2.0000     -19.229069      -523.2496 
  17   2.0000     -19.227673      -523.2116 
  18   2.0000     -19.227480      -523.2063 
  19   2.0000     -19.225091      -523.1413 
  20   2.0000     -19.224430      -523.1233 
  21   2.0000     -19.223019      -523.0849 
  22   2.0000     -19.220922      -523.0279 
  23   2.0000     -19.220879      -523.0267 
  24   2.0000     -19.220847      -523.0258 
  25   2.0000     -19.218952      -522.9743 
  26   2.0000     -19.218082      -522.9506 
  27   2.0000     -19.217740      -522.9413 
  28   2.0000     -19.213679      -522.8308 
  29   2.0000     -19.213366      -522.8223 
  30   2.0000     -19.208568      -522.6917 
  31   2.0000     -19.208450      -522.6885 
  32   2.0000     -19.193911      -522.2929 
  33   2.0000      -3.200468       -87.0892 
  34   2.0000      -1.936599       -52.6975 
  35   2.0000      -1.935698       -52.6730 
  36   2.0000      -1.935546       -52.6689 
  37   2.0000      -1.188373       -32.3373 
  38   2.0000      -1.178079       -32.0572 
  39   2.0000      -1.176216       -32.0065 
  40   2.0000      -1.174439       -31.9581 
  41   2.0000      -1.171917       -31.8895 
  42   2.0000      -1.169665       -31.8282 
  43   2.0000      -1.167859       -31.7791 
  44   2.0000      -1.166623       -31.7454 
  45   2.0000      -1.163309       -31.6553 
  46   2.0000      -1.160445       -31.5773 
  47   2.0000      -1.159458       -31.5505 
  48   2.0000      -1.158864       -31.5343 
  49   2.0000      -1.156751       -31.4768 
  50   2.0000      -1.155838       -31.4519 
  51   2.0000      -1.153598       -31.3910 
  52   2.0000      -1.152133       -31.3511 
  53   2.0000      -1.150748       -31.3134 
  54   2.0000      -1.148361       -31.2485 
  55   2.0000      -1.147435       -31.2233 
  56   2.0000      -1.145989       -31.1840 
  57   2.0000      -1.144361       -31.1396 
  58   2.0000      -1.143383       -31.1130 
  59   2.0000      -1.143036       -31.1036 
  60   2.0000      -1.140933       -31.0464 
  61   2.0000      -1.139998       -31.0209 
  62   2.0000      -1.138236       -30.9730 
  63   2.0000      -1.135488       -30.8982 
  64   2.0000      -1.134485       -30.8709 
  65   2.0000      -1.130520       -30.7630 
  66   2.0000      -1.129677       -30.7401 
  67   2.0000      -1.124499       -30.5992 
  68   2.0000      -1.115154       -30.3449 
  69   2.0000      -0.697012       -18.9667 
  70   2.0000      -0.681314       -18.5395 
  71   2.0000      -0.680129       -18.5072 
  72   2.0000      -0.676793       -18.4165 
  73   2.0000      -0.674909       -18.3652 
  74   2.0000      -0.670844       -18.2546 
  75   2.0000      -0.670171       -18.2363 
  76   2.0000      -0.668524       -18.1915 
  77   2.0000      -0.668098       -18.1799 
  78   2.0000      -0.667876       -18.1738 
  79   2.0000      -0.664630       -18.0855 
  80   2.0000      -0.663109       -18.0441 
  81   2.0000      -0.663037       -18.0421 
  82   2.0000      -0.662196       -18.0193 
  83   2.0000      -0.661353       -17.9963 
  84   2.0000      -0.660350       -17.9690 
  85   2.0000      -0.658951       -17.9310 
  86   2.0000      -0.658599       -17.9214 
  87   2.0000      -0.656715       -17.8701 
  88   2.0000      -0.654251       -17.8031 
  89   2.0000      -0.654181       -17.8012 
  90   2.0000      -0.651782       -17.7359 
  91   2.0000      -0.649600       -17.6765 
  92   2.0000      -0.648498       -17.6465 
  93   2.0000      -0.647764       -17.6266 
  94   2.0000      -0.646562       -17.5939 
  95   2.0000      -0.646016       -17.5790 
  96   2.0000      -0.645025       -17.5520 
  97   2.0000      -0.644411       -17.5353 
  98   2.0000      -0.638487       -17.3741 
  99   2.0000      -0.635568       -17.2947 
 100   2.0000      -0.628860       -17.1122 
 101   2.0000      -0.612783       -16.6747 
 102   2.0000      -0.579722       -15.7750 
 103   2.0000      -0.578220       -15.7342 
 104   2.0000      -0.573617       -15.6089 
 105   2.0000      -0.565712       -15.3938 
 106   2.0000      -0.560569       -15.2539 
 107   2.0000      -0.554596       -15.0913 
 108   2.0000      -0.551017       -14.9939 
 109   2.0000      -0.548996       -14.9389 
 110   2.0000      -0.546205       -14.8630 
 111   2.0000      -0.542395       -14.7593 
 112   2.0000      -0.540679       -14.7126 
 113   2.0000      -0.538617       -14.6565 
 114   2.0000      -0.537696       -14.6315 
 115   2.0000      -0.535246       -14.5648 
 116   2.0000      -0.533162       -14.5081 
 117   2.0000      -0.529433       -14.4066 
 118   2.0000      -0.523283       -14.2393 
 119   2.0000      -0.520984       -14.1767 
 120   2.0000      -0.515278       -14.0214 
 121   2.0000      -0.514292       -13.9946 
 122   2.0000      -0.509775       -13.8717 
 123   2.0000      -0.509253       -13.8575 
 124   2.0000      -0.508759       -13.8440 
 125   2.0000      -0.505096       -13.7444 
 126   2.0000      -0.503942       -13.7129 
 127   2.0000      -0.499814       -13.6006 
 128   2.0000      -0.498701       -13.5704 
 129   2.0000      -0.494453       -13.4548 
 130   2.0000      -0.489005       -13.3065 
 131   2.0000      -0.488635       -13.2964 
 132   2.0000      -0.482226       -13.1220 
 133   2.0000      -0.480216       -13.0673 
 134   2.0000      -0.473256       -12.8779 
 135   2.0000      -0.472756       -12.8643 
 136   2.0000      -0.469874       -12.7859 
 137   2.0000      -0.461205       -12.5500 
 138   2.0000      -0.459678       -12.5085 
 139   2.0000      -0.456112       -12.4114 
 140   2.0000      -0.454465       -12.3666 
 141   2.0000      -0.452893       -12.3238 
 142   2.0000      -0.451553       -12.2874 
 143   2.0000      -0.449266       -12.2252 
 144   2.0000      -0.449080       -12.2201 
 145   2.0000      -0.448079       -12.1928 
 146   2.0000      -0.447010       -12.1638 
 147   2.0000      -0.445581       -12.1249 
 148   2.0000      -0.445340       -12.1183 
 149   2.0000      -0.444224       -12.0880 
 150   2.0000      -0.443501       -12.0683 
 151   2.0000      -0.441895       -12.0246 
 152   2.0000      -0.441007       -12.0004 
 153   2.0000      -0.439606       -11.9623 
 154   2.0000      -0.439162       -11.9502 
 155   2.0000      -0.436831       -11.8868 
 156   2.0000      -0.435165       -11.8414 
 157   2.0000      -0.434153       -11.8139 
 158   2.0000      -0.433063       -11.7842 
 159   2.0000      -0.430924       -11.7260 
 160   2.0000      -0.429571       -11.6892 
 161   2.0000      -0.428763       -11.6672 
 162   2.0000      -0.425514       -11.5788 
 163   2.0000      -0.424254       -11.5445 
 164   2.0000      -0.414428       -11.2772 
 165   0.0000       0.025375         0.6905 
 166   0.0000       0.034945         0.9509 
 167   0.0000       0.038011         1.0343 
 168   0.0000       0.040114         1.0916 
 169   0.0000       0.050871         1.3843 
 170   0.0000       0.053548         1.4571 
 171   0.0000       0.057130         1.5546 
 172   0.0000       0.058136         1.5820 
 173   0.0000       0.061472         1.6727 
 174   0.0000       0.066870         1.8196 
 175   0.0000       0.069572         1.8932 
 176   0.0000       0.072028         1.9600 
 177   0.0000       0.075804         2.0627 
 178   0.0000       0.077452         2.1076 
 179   0.0000       0.080677         2.1953 
 180   0.0000       0.082620         2.2482 
 181   0.0000       0.085296         2.3210 
 182   0.0000       0.091254         2.4831 
 183   0.0000       0.092000         2.5034 
 184   0.0000       0.093552         2.5457 
 185   0.0000       0.097480         2.6526 
 186   0.0000       0.097942         2.6651 
 187   0.0000       0.101342         2.7577 
 188   0.0000       0.102056         2.7771 
 189   0.0000       0.106288         2.8922 
 190   0.0000       0.108060         2.9405 
 191   0.0000       0.112276         3.0552 
 192   0.0000       0.113830         3.0975 
 193   0.0000       0.116434         3.1683 
 194   0.0000       0.116948         3.1823 
 195   0.0000       0.119445         3.2503 
 196   0.0000       0.121227         3.2987 
 197   0.0000       0.123039         3.3481 
 198   0.0000       0.125734         3.4214 
 199   0.0000       0.126966         3.4549 
 200   0.0000       0.128606         3.4996 
 201   0.0000       0.129575         3.5259 
 202   0.0000       0.133386         3.6296 
 203   0.0000       0.133978         3.6457 
 204   0.0000       0.139629         3.7995 
 205   0.0000       0.140293         3.8176 
 206   0.0000       0.142105         3.8669 
 207   0.0000       0.143312         3.8997 
 208   0.0000       0.146836         3.9956 
 209   0.0000       0.147515         4.0141 
 210   0.0000       0.148009         4.0275 
 211   0.0000       0.150136         4.0854 
 212   0.0000       0.153004         4.1634 
 213   0.0000       0.156258         4.2520 
 214   0.0000       0.158107         4.3023 
 215   0.0000       0.158760         4.3201 
 216   0.0000       0.160228         4.3600 
 217   0.0000       0.160864         4.3773 
 218   0.0000       0.162650         4.4259 
 219   0.0000       0.165206         4.4955 
 220   0.0000       0.167361         4.5541 
 221   0.0000       0.167884         4.5684 
 222   0.0000       0.170450         4.6382 
 223   0.0000       0.172260         4.6874 
 224   0.0000       0.173409         4.7187 
 225   0.0000       0.174249         4.7415 
 226   0.0000       0.177533         4.8309 
 227   0.0000       0.179838         4.8937 
 228   0.0000       0.180340         4.9073 
 229   0.0000       0.181686         4.9439 
 230   0.0000       0.183312         4.9882 
 231   0.0000       0.185783         5.0554 
 232   0.0000       0.186361         5.0711 
 233   0.0000       0.187786         5.1099 
 234   0.0000       0.189132         5.1466 
 235   0.0000       0.190112         5.1732 
 236   0.0000       0.193776         5.2729 
 237   0.0000       0.194873         5.3028 
 238   0.0000       0.196291         5.3414 
 239   0.0000       0.198060         5.3895 
 240   0.0000       0.198423         5.3994 
 241   0.0000       0.201537         5.4841 
 242   0.0000       0.202393         5.5074 
 243   0.0000       0.205234         5.5847 
 244   0.0000       0.205794         5.5999 
 245   0.0000       0.208081         5.6622 
 246   0.0000       0.208643         5.6775 
 247   0.0000       0.209544         5.7020 
 248   0.0000       0.211096         5.7442 
 249   0.0000       0.212904         5.7934 
 250   0.0000       0.217280         5.9125 
 251   0.0000       0.218020         5.9326 
 252   0.0000       0.220374         5.9967 
 253   0.0000       0.222887         6.0651 
 254   0.0000       0.223912         6.0929 
 255   0.0000       0.225077         6.1247 
 256   0.0000       0.227167         6.1815 
 257   0.0000       0.228005         6.2043 
 258   0.0000       0.230439         6.2706 
 259   0.0000       0.232612         6.3297 
 260   0.0000       0.233251         6.3471 
 261   0.0000       0.234184         6.3725 
 262   0.0000       0.237494         6.4625 
 263   0.0000       0.238003         6.4764 
 264   0.0000       0.238797         6.4980 
 265   0.0000       0.239951         6.5294 
 266   0.0000       0.241621         6.5748 
 267   0.0000       0.243719         6.6319 
 268   0.0000       0.245710         6.6861 
 269   0.0000       0.246993         6.7210 
 270   0.0000       0.248743         6.7686 
 271   0.0000       0.251008         6.8303 
 272   0.0000       0.252790         6.8788 
 273   0.0000       0.254445         6.9238 
 274   0.0000       0.255416         6.9502 
 275   0.0000       0.257958         7.0194 
 276   0.0000       0.259813         7.0699 
 277   0.0000       0.261104         7.1050 
 278   0.0000       0.262874         7.1532 
 279   0.0000       0.264830         7.2064 
 280   0.0000       0.265378         7.2213 
 281   0.0000       0.267918         7.2904 
 282   0.0000       0.269008         7.3201 
 283   0.0000       0.272190         7.4067 
 284   0.0000       0.273836         7.4515 
 285   0.0000       0.274296         7.4640 
 286   0.0000       0.276345         7.5197 
 287   0.0000       0.278119         7.5680 
 288   0.0000       0.278462         7.5773 
 289   0.0000       0.279505         7.6057 
 290   0.0000       0.282530         7.6880 
 291   0.0000       0.283472         7.7137 
 292   0.0000       0.285805         7.7772 
 293   0.0000       0.287182         7.8146 
 294   0.0000       0.287753         7.8302 
 295   0.0000       0.288618         7.8537 
 296   0.0000       0.290694         7.9102 
 297   0.0000       0.292499         7.9593 
 298   0.0000       0.294598         8.0164 
 299   0.0000       0.296619         8.0714 
 300   0.0000       0.298513         8.1230 
 301   0.0000       0.298838         8.1318 
 302   0.0000       0.300688         8.1821 
[...]
267:   3757.29   0.107889  545.23  0.008961  (-0.013703  0.077723 -0.052269)
268:   3785.12   0.000276    1.40  0.000023  (-0.000184  0.004734 -0.000564)
269:   3802.91   0.007109   35.92  0.000583  (-0.018307 -0.009756 -0.012370)
270:   3842.90   0.027944  141.22  0.002269  ( 0.016720  0.035157  0.027452)
271:   3850.46   0.024367  123.14  0.001975  (-0.026502  0.004045  0.035442)
272:   3853.18   0.023406  118.28  0.001896  (-0.008939  0.035767  0.023161)
273:   3853.55   0.049831  251.83  0.004035  ( 0.041445  0.036986  0.030817)
274:   3857.10   0.032049  161.96  0.002593  ( 0.024186  0.043009 -0.012579)
275:   3858.43   0.028874  145.92  0.002335  (-0.036565 -0.031540 -0.001865)
276:   3858.63   0.024177  122.18  0.001955  ( 0.014317  0.037702 -0.018134)
277:   3859.59   0.026192  132.36  0.002118  ( 0.022456 -0.006402 -0.039654)
278:   3860.63   0.032580  164.65  0.002634  ( 0.048679 -0.011286 -0.011681)
279:   3861.15   0.033297  168.27  0.002691  (-0.031127  0.030511  0.028131)
280:   3862.76   0.028344  143.24  0.002290  ( 0.039692 -0.026550 -0.003080)
281:   3862.82   0.023730  119.92  0.001917  ( 0.021315 -0.038199  0.001898)
282:   3865.13   0.057936  292.79  0.004678  ( 0.027650 -0.015033 -0.060722)
283:   3865.17   0.009660   48.82  0.000780  (-0.002274 -0.005871  0.027209)
284:   3865.58   0.010448   52.80  0.000843  (-0.013810  0.006394 -0.024736)
285:   3866.06   0.022274  112.56  0.001798  (-0.035103 -0.021391 -0.010398)
286:   3866.49   0.037143  187.70  0.002998  ( 0.044425  0.000622 -0.031997)
287:   3871.59   0.023827  120.41  0.001921  ( 0.012108  0.041307 -0.008225)
288:   3876.31   0.026860  135.74  0.002162  (-0.005029  0.034993 -0.030209)
289:   3877.61   0.027523  139.09  0.002215  (-0.045870  0.004417 -0.009563)
290:   3879.14   0.038556  194.85  0.003102  (-0.022699  0.049896 -0.009842)

* The epsilon (eps) is given for a Dirac delta lineshape.
** The dipole moment derivative (T) already includes vibrational overlap.

The first frequency considered to be a vibration is 10
The total number of vibrations considered is 281


--------------------------
THERMOCHEMISTRY AT 298.15K
--------------------------

Temperature         ... 298.15 K
Pressure            ... 1.00 atm
Total Mass          ... 600.79 AMU

Throughout the following assumptions are being made:
  (1) The electronic state is orbitally nondegenerate
  (2) There are no thermally accessible electronically excited states
  (3) Hindered rotations indicated by low frequency modes are not
      treated as such but are treated as vibrations and this may
      cause some error
  (4) All equations used are the standard statistical mechanics
      equations for an ideal gas
  (5) All vibrations are strictly harmonic

freq.       6.76  E(vib)   ...       0.58 
freq.       9.99  E(vib)   ...       0.58 
freq.      13.33  E(vib)   ...       0.57 
freq.      15.40  E(vib)   ...       0.57 
freq.      18.06  E(vib)   ...       0.57 
freq.      22.71  E(vib)   ...       0.56 
freq.      25.51  E(vib)   ...       0.56 
freq.      25.87  E(vib)   ...       0.56 
freq.      28.49  E(vib)   ...       0.55 
freq.      29.45  E(vib)   ...       0.55 
freq.      31.96  E(vib)   ...       0.55 
freq.      33.18  E(vib)   ...       0.55 
freq.      37.13  E(vib)   ...       0.54 
freq.      38.05  E(vib)   ...       0.54 
freq.      41.62  E(vib)   ...       0.53 
freq.      41.82  E(vib)   ...       0.53 
freq.      44.05  E(vib)   ...       0.53 
freq.      45.92  E(vib)   ...       0.53 
freq.      48.74  E(vib)   ...       0.53 
freq.      49.96  E(vib)   ...       0.52 
freq.      51.06  E(vib)   ...       0.52 
freq.      54.23  E(vib)   ...       0.52 
freq.      56.77  E(vib)   ...       0.52 
freq.      58.23  E(vib)   ...       0.51 
freq.      58.75  E(vib)   ...       0.51 
freq.      63.25  E(vib)   ...       0.51 
freq.      63.92  E(vib)   ...       0.51 
freq.      68.06  E(vib)   ...       0.50 
freq.      69.02  E(vib)   ...       0.50 
freq.      69.59  E(vib)   ...       0.50 
freq.      72.36  E(vib)   ...       0.50 
freq.      73.45  E(vib)   ...       0.49 
freq.      76.48  E(vib)   ...       0.49 
freq.      79.41  E(vib)   ...       0.49 
freq.      80.38  E(vib)   ...       0.49 
freq.      84.00  E(vib)   ...       0.48 
freq.      87.88  E(vib)   ...       0.48 
freq.      91.18  E(vib)   ...       0.47 
freq.      94.23  E(vib)   ...       0.47 
freq.     101.95  E(vib)   ...       0.46 
freq.     114.11  E(vib)   ...       0.44 
freq.     118.18  E(vib)   ...       0.44 
freq.     122.70  E(vib)   ...       0.43 
freq.     132.40  E(vib)   ...       0.42 
freq.     133.92  E(vib)   ...       0.42 
freq.     137.54  E(vib)   ...       0.42 
freq.     139.98  E(vib)   ...       0.41 
freq.     144.41  E(vib)   ...       0.41 
freq.     145.34  E(vib)   ...       0.41 
freq.     148.58  E(vib)   ...       0.41 
freq.     155.46  E(vib)   ...       0.40 
freq.     155.85  E(vib)   ...       0.40 
freq.     161.52  E(vib)   ...       0.39 
freq.     164.66  E(vib)   ...       0.39 
freq.     166.91  E(vib)   ...       0.39 
freq.     171.12  E(vib)   ...       0.38 
freq.     174.03  E(vib)   ...       0.38 
freq.     174.31  E(vib)   ...       0.38 
freq.     175.95  E(vib)   ...       0.38 
freq.     178.93  E(vib)   ...       0.37 
freq.     183.85  E(vib)   ...       0.37 
freq.     187.01  E(vib)   ...       0.36 
freq.     191.77  E(vib)   ...       0.36 
freq.     192.84  E(vib)   ...       0.36 
freq.     194.23  E(vib)   ...       0.36 
freq.     194.88  E(vib)   ...       0.36 
freq.     197.54  E(vib)   ...       0.35 
freq.     200.31  E(vib)   ...       0.35 
freq.     203.94  E(vib)   ...       0.35 
freq.     205.86  E(vib)   ...       0.35 
freq.     206.58  E(vib)   ...       0.35 
freq.     209.58  E(vib)   ...       0.34 
freq.     212.39  E(vib)   ...       0.34 
freq.     213.77  E(vib)   ...       0.34 
freq.     215.10  E(vib)   ...       0.34 
freq.     216.75  E(vib)   ...       0.34 
freq.     219.49  E(vib)   ...       0.33 
freq.     221.53  E(vib)   ...       0.33 
freq.     224.75  E(vib)   ...       0.33 
freq.     230.93  E(vib)   ...       0.32 
freq.     233.88  E(vib)   ...       0.32 
freq.     234.70  E(vib)   ...       0.32 
freq.     240.57  E(vib)   ...       0.31 
freq.     243.01  E(vib)   ...       0.31 
freq.     244.52  E(vib)   ...       0.31 
freq.     251.63  E(vib)   ...       0.30 
freq.     252.88  E(vib)   ...       0.30 
freq.     254.52  E(vib)   ...       0.30 
freq.     256.58  E(vib)   ...       0.30 
freq.     259.06  E(vib)   ...       0.30 
freq.     262.36  E(vib)   ...       0.29 
freq.     267.12  E(vib)   ...       0.29 
freq.     270.75  E(vib)   ...       0.29 
freq.     273.47  E(vib)   ...       0.29 
freq.     281.16  E(vib)   ...       0.28 
freq.     281.99  E(vib)   ...       0.28 
freq.     286.28  E(vib)   ...       0.27 
freq.     287.89  E(vib)   ...       0.27 
freq.     290.45  E(vib)   ...       0.27 
freq.     292.30  E(vib)   ...       0.27 
freq.     296.08  E(vib)   ...       0.27 
freq.     300.86  E(vib)   ...       0.26 
freq.     302.80  E(vib)   ...       0.26 
freq.     311.02  E(vib)   ...       0.26 
freq.     313.67  E(vib)   ...       0.25 
freq.     324.05  E(vib)   ...       0.25 
freq.     326.82  E(vib)   ...       0.24 
freq.     340.71  E(vib)   ...       0.23 
freq.     345.48  E(vib)   ...       0.23 
freq.     345.87  E(vib)   ...       0.23 
freq.     357.88  E(vib)   ...       0.22 
freq.     365.89  E(vib)   ...       0.22 
freq.     368.20  E(vib)   ...       0.21 
freq.     377.70  E(vib)   ...       0.21 
freq.     383.76  E(vib)   ...       0.20 
freq.     386.11  E(vib)   ...       0.20 
freq.     394.19  E(vib)   ...       0.20 
freq.     406.85  E(vib)   ...       0.19 
freq.     416.31  E(vib)   ...       0.18 
freq.     419.01  E(vib)   ...       0.18 
freq.     424.17  E(vib)   ...       0.18 
freq.     429.19  E(vib)   ...       0.18 
freq.     434.07  E(vib)   ...       0.17 
freq.     440.06  E(vib)   ...       0.17 
freq.     443.21  E(vib)   ...       0.17 
freq.     449.93  E(vib)   ...       0.17 
freq.     453.66  E(vib)   ...       0.16 
freq.     453.88  E(vib)   ...       0.16 
freq.     460.94  E(vib)   ...       0.16 
freq.     464.17  E(vib)   ...       0.16 
freq.     470.41  E(vib)   ...       0.15 
freq.     476.08  E(vib)   ...       0.15 
freq.     483.57  E(vib)   ...       0.15 
freq.     489.48  E(vib)   ...       0.15 
freq.     490.36  E(vib)   ...       0.15 
freq.     494.34  E(vib)   ...       0.14 
freq.     501.14  E(vib)   ...       0.14 
freq.     518.09  E(vib)   ...       0.13 
freq.     520.36  E(vib)   ...       0.13 
freq.     527.15  E(vib)   ...       0.13 
freq.     534.86  E(vib)   ...       0.13 
freq.     535.22  E(vib)   ...       0.13 
freq.     541.51  E(vib)   ...       0.12 
freq.     554.30  E(vib)   ...       0.12 
freq.     558.41  E(vib)   ...       0.12 
freq.     565.14  E(vib)   ...       0.11 
freq.     574.43  E(vib)   ...       0.11 
freq.     581.30  E(vib)   ...       0.11 
freq.     582.83  E(vib)   ...       0.11 
freq.     590.80  E(vib)   ...       0.10 
freq.     600.47  E(vib)   ...       0.10 
freq.     607.94  E(vib)   ...       0.10 
freq.     623.97  E(vib)   ...       0.09 
freq.     625.67  E(vib)   ...       0.09 
freq.     641.45  E(vib)   ...       0.09 
freq.     645.08  E(vib)   ...       0.09 
freq.     649.52  E(vib)   ...       0.08 
freq.     652.72  E(vib)   ...       0.08 
freq.     655.55  E(vib)   ...       0.08 
freq.     657.68  E(vib)   ...       0.08 
freq.     663.47  E(vib)   ...       0.08 
freq.     671.61  E(vib)   ...       0.08 
freq.     673.00  E(vib)   ...       0.08 
freq.     677.77  E(vib)   ...       0.08 
freq.     687.58  E(vib)   ...       0.07 
freq.     689.54  E(vib)   ...       0.07 
freq.     719.12  E(vib)   ...       0.07 
freq.     721.43  E(vib)   ...       0.07 
freq.     726.90  E(vib)   ...       0.06 
freq.     734.29  E(vib)   ...       0.06 
freq.     745.27  E(vib)   ...       0.06 
freq.     754.25  E(vib)   ...       0.06 
freq.     763.31  E(vib)   ...       0.06 
freq.     765.15  E(vib)   ...       0.06 
freq.     777.22  E(vib)   ...       0.05 
freq.     787.06  E(vib)   ...       0.05 
freq.     804.89  E(vib)   ...       0.05 
freq.     806.27  E(vib)   ...       0.05 
freq.     825.70  E(vib)   ...       0.04 
freq.     833.27  E(vib)   ...       0.04 
freq.     853.11  E(vib)   ...       0.04 
freq.     856.86  E(vib)   ...       0.04 
freq.     906.56  E(vib)   ...       0.03 
freq.     910.10  E(vib)   ...       0.03 
freq.     939.65  E(vib)   ...       0.03 
freq.    1588.90  E(vib)   ...       0.00 
freq.    1594.37  E(vib)   ...       0.00 
freq.    1595.23  E(vib)   ...       0.00 
freq.    1600.84  E(vib)   ...       0.00 
freq.    1604.05  E(vib)   ...       0.00 
freq.    1604.57  E(vib)   ...       0.00 
freq.    1613.08  E(vib)   ...       0.00 
freq.    1613.27  E(vib)   ...       0.00 
freq.    1615.15  E(vib)   ...       0.00 
freq.    1617.02  E(vib)   ...       0.00 
freq.    1617.79  E(vib)   ...       0.00 
freq.    1618.37  E(vib)   ...       0.00 
freq.    1619.60  E(vib)   ...       0.00 
freq.    1620.78  E(vib)   ...       0.00 
freq.    1621.91  E(vib)   ...       0.00 
freq.    1625.08  E(vib)   ...       0.00 
freq.    1625.37  E(vib)   ...       0.00 
freq.    1626.55  E(vib)   ...       0.00 
freq.    1627.57  E(vib)   ...       0.00 
freq.    1633.31  E(vib)   ...       0.00 
freq.    1633.77  E(vib)   ...       0.00 
freq.    1635.59  E(vib)   ...       0.00 
freq.    1636.59  E(vib)   ...       0.00 
freq.    1637.10  E(vib)   ...       0.00 
freq.    1641.88  E(vib)   ...       0.00 
freq.    1643.68  E(vib)   ...       0.00 
freq.    1652.13  E(vib)   ...       0.00 
freq.    1655.11  E(vib)   ...       0.00 
freq.    1668.90  E(vib)   ...       0.00 
freq.    1675.15  E(vib)   ...       0.00 
freq.    1686.88  E(vib)   ...       0.00 
freq.    1703.80  E(vib)   ...       0.00 
freq.    3219.17  E(vib)   ...       0.00 
freq.    3276.99  E(vib)   ...       0.00 
freq.    3311.62  E(vib)   ...       0.00 
freq.    3330.89  E(vib)   ...       0.00 
freq.    3345.15  E(vib)   ...       0.00 
freq.    3348.43  E(vib)   ...       0.00 
freq.    3366.18  E(vib)   ...       0.00 
freq.    3407.35  E(vib)   ...       0.00 
freq.    3439.35  E(vib)   ...       0.00 
freq.    3443.01  E(vib)   ...       0.00 
freq.    3459.86  E(vib)   ...       0.00 
freq.    3464.10  E(vib)   ...       0.00 
freq.    3470.79  E(vib)   ...       0.00 
freq.    3472.62  E(vib)   ...       0.00 
freq.    3489.33  E(vib)   ...       0.00 
freq.    3502.51  E(vib)   ...       0.00 
freq.    3522.65  E(vib)   ...       0.00 
freq.    3522.93  E(vib)   ...       0.00 
freq.    3533.96  E(vib)   ...       0.00 
freq.    3548.41  E(vib)   ...       0.00 
freq.    3552.38  E(vib)   ...       0.00 
freq.    3571.19  E(vib)   ...       0.00 
freq.    3576.43  E(vib)   ...       0.00 
freq.    3582.23  E(vib)   ...       0.00 
freq.    3588.24  E(vib)   ...       0.00 
freq.    3595.19  E(vib)   ...       0.00 
freq.    3601.73  E(vib)   ...       0.00 
freq.    3604.18  E(vib)   ...       0.00 
freq.    3611.92  E(vib)   ...       0.00 
freq.    3613.85  E(vib)   ...       0.00 
freq.    3618.75  E(vib)   ...       0.00 
freq.    3620.70  E(vib)   ...       0.00 
freq.    3632.97  E(vib)   ...       0.00 
freq.    3645.04  E(vib)   ...       0.00 
freq.    3670.24  E(vib)   ...       0.00 
freq.    3671.09  E(vib)   ...       0.00 
freq.    3675.18  E(vib)   ...       0.00 
freq.    3679.99  E(vib)   ...       0.00 
freq.    3743.81  E(vib)   ...       0.00 
freq.    3753.31  E(vib)   ...       0.00 
freq.    3757.29  E(vib)   ...       0.00 
freq.    3785.12  E(vib)   ...       0.00 
freq.    3802.91  E(vib)   ...       0.00 
freq.    3842.90  E(vib)   ...       0.00 
freq.    3850.46  E(vib)   ...       0.00 
freq.    3853.18  E(vib)   ...       0.00 
freq.    3853.55  E(vib)   ...       0.00 
freq.    3857.10  E(vib)   ...       0.00 
freq.    3858.43  E(vib)   ...       0.00 
freq.    3858.63  E(vib)   ...       0.00 
freq.    3859.59  E(vib)   ...       0.00 
freq.    3860.63  E(vib)   ...       0.00 
freq.    3861.15  E(vib)   ...       0.00 
freq.    3862.76  E(vib)   ...       0.00 
freq.    3862.82  E(vib)   ...       0.00 
freq.    3865.13  E(vib)   ...       0.00 
freq.    3865.17  E(vib)   ...       0.00 
freq.    3865.58  E(vib)   ...       0.00 
freq.    3866.06  E(vib)   ...       0.00 
freq.    3866.49  E(vib)   ...       0.00 
freq.    3871.59  E(vib)   ...       0.00 
freq.    3876.31  E(vib)   ...       0.00 
freq.    3877.61  E(vib)   ...       0.00 
freq.    3879.14  E(vib)   ...       0.00 

------------
INNER ENERGY
------------

The inner energy is: U= E(el) + E(ZPE) + E(vib) + E(rot) + E(trans)
    E(el)   - is the total energy from the electronic structure calculation
              = E(kin-el) + E(nuc-el) + E(el-el) + E(nuc-nuc)
    E(ZPE)  - the the zero temperature vibrational energy from the frequency calculation
    E(vib)  - the the finite temperature correction to E(ZPE) due to population
              of excited vibrational states
    E(rot)  - is the rotational thermal energy
    E(trans)- is the translational thermal energy

Summary of contributions to the inner energy U:
Electronic energy                ...  -2647.83480115 Eh
Zero point energy                ...      0.79267193 Eh     497.41 kcal/mol
Thermal vibrational correction   ...      0.08427320 Eh      52.88 kcal/mol
Thermal rotational correction    ...      0.00141627 Eh       0.89 kcal/mol
Thermal translational correction ...      0.00141627 Eh       0.89 kcal/mol
-----------------------------------------------------------------------
Total thermal energy                  -2646.95502347 Eh


Summary of corrections to the electronic energy:
(perhaps to be used in another calculation)
Total thermal correction                  0.08710575 Eh      54.66 kcal/mol
Non-thermal (ZPE) correction              0.79267193 Eh     497.41 kcal/mol
-----------------------------------------------------------------------
Total correction                          0.87977768 Eh     552.07 kcal/mol


--------
ENTHALPY
--------

The enthalpy is H = U + kB*T
                kB is Boltzmann's constant
Total free energy                 ...  -2646.95502347 Eh 
Thermal Enthalpy correction       ...      0.00094421 Eh       0.59 kcal/mol
-----------------------------------------------------------------------
Total Enthalpy                    ...  -2646.95407926 Eh


Note: Only C1 symmetry has been detected, increase convergence thresholds 
      if your molecule has a higher symmetry. Symmetry factor of 1.0 is   
      used for the rotational entropy correction. 
 

Note: Rotational entropy computed according to Herzberg 
Infrared and Raman Spectra, Chapter V,1, Van Nostrand Reinhold, 1945 
Point Group:  C1, Symmetry Number:   1  
Rotational constants in cm-1:     0.002172     0.001808     0.001373 

Vibrational entropy computed according to the QRRHO of S. Grimme
Chem.Eur.J. 2012 18 9955


-------
ENTROPY
-------

The entropy contributions are T*S = T*(S(el)+S(vib)+S(rot)+S(trans))
     S(el)   - electronic entropy
     S(vib)  - vibrational entropy
     S(rot)  - rotational entropy
     S(trans)- translational entropy
The entropies will be listed as multiplied by the temperature to get
units of energy

Electronic entropy                ...      0.00000000 Eh      0.00 kcal/mol
Vibrational entropy               ...      0.15777981 Eh     99.01 kcal/mol
Rotational entropy                ...      0.01849848 Eh     11.61 kcal/mol
Translational entropy             ...      0.02141071 Eh     13.44 kcal/mol
-----------------------------------------------------------------------
Final entropy term                ...      0.19768900 Eh    124.05 kcal/mol

In case the symmetry of your molecule has not been determined correctly
or in case you have a reason to use a different symmetry number we print 
out the resulting rotational entropy values for sn=1,12 :
 --------------------------------------------------------
|  sn= 1 | S(rot)=       0.01849848 Eh     11.61 kcal/mol|
|  sn= 2 | S(rot)=       0.01784402 Eh     11.20 kcal/mol|
|  sn= 3 | S(rot)=       0.01746119 Eh     10.96 kcal/mol|
|  sn= 4 | S(rot)=       0.01718956 Eh     10.79 kcal/mol|
|  sn= 5 | S(rot)=       0.01697888 Eh     10.65 kcal/mol|
|  sn= 6 | S(rot)=       0.01680673 Eh     10.55 kcal/mol|
|  sn= 7 | S(rot)=       0.01666119 Eh     10.46 kcal/mol|
|  sn= 8 | S(rot)=       0.01653511 Eh     10.38 kcal/mol|
|  sn= 9 | S(rot)=       0.01642390 Eh     10.31 kcal/mol|
|  sn=10 | S(rot)=       0.01632442 Eh     10.24 kcal/mol|
|  sn=11 | S(rot)=       0.01623443 Eh     10.19 kcal/mol|
|  sn=12 | S(rot)=       0.01615228 Eh     10.14 kcal/mol|
 --------------------------------------------------------


-------------------
GIBBS FREE ENERGY
-------------------

The Gibbs free energy is G = H - T*S

Total enthalpy                    ...  -2646.95407926 Eh 
Total entropy correction          ...     -0.19768900 Eh   -124.05 kcal/mol
-----------------------------------------------------------------------
Final Gibbs free energy         ...  -2647.15176826 Eh

For completeness - the Gibbs free energy minus the electronic energy
G-E(el)                           ...      0.68303289 Eh    428.61 kcal/mol


Timings for individual modules:

Sum of individual times         ...    45643.950 sec (= 760.733 min)
GTO integral calculation        ...        2.711 sec (=   0.045 min)   0.0 %
SCF iterations                  ...      526.128 sec (=   8.769 min)   1.2 %
Analytical frequency calculation...    45115.111 sec (= 751.919 min)  98.8 %
                             ****ORCA TERMINATED NORMALLY****
TOTAL RUN TIME: 0 days 12 hours 40 minutes 46 seconds 208 msec
