
                                 *****************
                                 * O   R   C   A *
                                 *****************

                                            #,                                       
                                            ###                                      
                                            ####                                     
                                            #####                                    
                                            ######                                   
                                           ########,                                 
                                     ,,################,,,,,                         
                               ,,#################################,,                 
                          ,,##########################################,,             
                       ,#########################################, ''#####,          
                    ,#############################################,,   '####,        
                  ,##################################################,,,,####,       
                ,###########''''           ''''###############################       
              ,#####''   ,,,,##########,,,,          '''####'''          '####       
            ,##' ,,,,###########################,,,                        '##       
           ' ,,###''''                  '''############,,,                           
         ,,##''                                '''############,,,,        ,,,,,,###''
      ,#''                                            '''#######################'''  
     '                                                          ''''####''''         
             ,#######,   #######,   ,#######,      ##                                
            ,#'     '#,  ##    ##  ,#'     '#,    #''#        ######   ,####,        
            ##       ##  ##   ,#'  ##            #'  '#       #        #'  '#        
            ##       ##  #######   ##           ,######,      #####,   #    #        
            '#,     ,#'  ##    ##  '#,     ,#' ,#      #,         ##   #,  ,#        
             '#######'   ##     ##  '#######'  #'      '#     #####' # '####'        



                  #######################################################
                  #                        -***-                        #
                  #          Department of theory and spectroscopy      #
                  #    Directorship and core code : Frank Neese         #
                  #        Max Planck Institute fuer Kohlenforschung    #
                  #                Kaiser Wilhelm Platz 1               #
                  #                 D-45470 Muelheim/Ruhr               #
                  #                      Germany                        #
                  #                                                     #
                  #                  All rights reserved                #
                  #                        -***-                        #
                  #######################################################


                         Program Version 5.0.4 -  RELEASE  -


 With contributions from (in alphabetic order):
   Daniel Aravena         : Magnetic Suceptibility
   Michael Atanasov       : Ab Initio Ligand Field Theory (pilot matlab implementation)
   Alexander A. Auer      : GIAO ZORA, VPT2 properties, NMR spectrum
   Ute Becker             : Parallelization
   Giovanni Bistoni       : ED, misc. LED, open-shell LED, HFLD
   Martin Brehm           : Molecular dynamics
   Dmytro Bykov           : SCF Hessian
   Vijay G. Chilkuri      : MRCI spin determinant printing, contributions to CSF-ICE
   Dipayan Datta          : RHF DLPNO-CCSD density
   Achintya Kumar Dutta   : EOM-CC, STEOM-CC
   Dmitry Ganyushin       : Spin-Orbit,Spin-Spin,Magnetic field MRCI
   Miquel Garcia          : C-PCM and meta-GGA Hessian, CC/C-PCM, Gaussian charge scheme
   Yang Guo               : DLPNO-NEVPT2, F12-NEVPT2, CIM, IAO-localization
   Andreas Hansen         : Spin unrestricted coupled pair/coupled cluster methods
   Benjamin Helmich-Paris : MC-RPA, TRAH-SCF, COSX integrals
   Lee Huntington         : MR-EOM, pCC
   Robert Izsak           : Overlap fitted RIJCOSX, COSX-SCS-MP3, EOM
   Marcus Kettner         : VPT2
   Christian Kollmar      : KDIIS, OOCD, Brueckner-CCSD(T), CCSD density, CASPT2, CASPT2-K
   Simone Kossmann        : Meta GGA functionals, TD-DFT gradient, OOMP2, MP2 Hessian
   Martin Krupicka        : Initial AUTO-CI
   Lucas Lang             : DCDCAS
   Marvin Lechner         : AUTO-CI (C++ implementation), FIC-MRCC
   Dagmar Lenk            : GEPOL surface, SMD
   Dimitrios Liakos       : Extrapolation schemes; Compound Job, initial MDCI parallelization
   Dimitrios Manganas     : Further ROCIS development; embedding schemes
   Dimitrios Pantazis     : SARC Basis sets
   Anastasios Papadopoulos: AUTO-CI, single reference methods and gradients
   Taras Petrenko         : DFT Hessian,TD-DFT gradient, ASA, ECA, R-Raman, ABS, FL, XAS/XES, NRVS
   Peter Pinski           : DLPNO-MP2, DLPNO-MP2 Gradient
   Christoph Reimann      : Effective Core Potentials
   Marius Retegan         : Local ZFS, SOC
   Christoph Riplinger    : Optimizer, TS searches, QM/MM, DLPNO-CCSD(T), (RO)-DLPNO pert. Triples
   Tobias Risthaus        : Range-separated hybrids, TD-DFT gradient, RPA, STAB
   Michael Roemelt        : Original ROCIS implementation
   Masaaki Saitow         : Open-shell DLPNO-CCSD energy and density
   Barbara Sandhoefer     : DKH picture change effects
   Avijit Sen             : IP-ROCIS
   Kantharuban Sivalingam : CASSCF convergence, NEVPT2, FIC-MRCI
   Bernardo de Souza      : ESD, SOC TD-DFT
   Georgi Stoychev        : AutoAux, RI-MP2 NMR, DLPNO-MP2 response
   Willem Van den Heuvel  : Paramagnetic NMR
   Boris Wezisla          : Elementary symmetry handling
   Frank Wennmohs         : Technical directorship


 We gratefully acknowledge several colleagues who have allowed us to
 interface, adapt or use parts of their codes:
   Stefan Grimme, W. Hujo, H. Kruse, P. Pracht,  : VdW corrections, initial TS optimization,
                  C. Bannwarth, S. Ehlert          DFT functionals, gCP, sTDA/sTD-DF
   Ed Valeev, F. Pavosevic, A. Kumar             : LibInt (2-el integral package), F12 methods
   Garnet Chan, S. Sharma, J. Yang, R. Olivares  : DMRG
   Ulf Ekstrom                                   : XCFun DFT Library
   Mihaly Kallay                                 : mrcc  (arbitrary order and MRCC methods)
   Jiri Pittner, Ondrej Demel                    : Mk-CCSD
   Frank Weinhold                                : gennbo (NPA and NBO analysis)
   Christopher J. Cramer and Donald G. Truhlar   : smd solvation model
   Lars Goerigk                                  : TD-DFT with DH, B97 family of functionals
   V. Asgeirsson, H. Jonsson                     : NEB implementation
   FAccTs GmbH                                   : IRC, NEB, NEB-TS, DLPNO-Multilevel, CI-OPT
                                                   MM, QMMM, 2- and 3-layer-ONIOM, Crystal-QMMM,
                                                   LR-CPCM, SF, NACMEs, symmetry and pop. for TD-DFT,
                                                   nearIR, NL-DFT gradient (VV10), updates on ESD,
                                                   ML-optimized integration grids
   S Lehtola, MJT Oliveira, MAL Marques          : LibXC Library
   Liviu Ungur et al                             : ANISO software


 Your calculation uses the libint2 library for the computation of 2-el integrals
 For citations please refer to: http://libint.valeyev.net

 Your ORCA version has been built with support for libXC version: 5.1.0
 For citations please refer to: https://tddft.org/programs/libxc/

 This ORCA versions uses:
   CBLAS   interface :  Fast vector & matrix operations
   LAPACKE interface :  Fast linear algebra routines
   SCALAPACK package :  Parallel linear algebra routines
   Shared memory     :  Shared parallel matrices
   BLAS/LAPACK       :  OpenBLAS 0.3.15  USE64BITINT DYNAMIC_ARCH NO_AFFINITY Zen SINGLE_THREADED
        Core in use  :  Zen
   Copyright (c) 2011-2014, The OpenBLAS Project


Your calculation utilizes the atom-pairwise dispersion correction
based on tight binding partial charges (D4)
Cite in your paper:
E.Caldeweyher, C.Bannwarth, S.Grimme, J.Chem.Phys., (2017), 147, 034112.
E.Caldeweyher, S.Ehlert, A.Hansen, H.Neugebauer, S.Grimme, J.Chem.Phys., (2018), in progress.
   

================================================================================

----- Orbital basis set information -----
Your calculation utilizes the basis: def2-TZVPD
   F. Weigend and R. Ahlrichs, Phys. Chem. Chem. Phys. 7, 3297 (2005).
   D. Rappoport and F. Furche, J. Chem. Phys. 133 134105 (2010).

----- AuxJ basis set information -----
Your calculation utilizes the auxiliary basis: def2/J
   F. Weigend, Phys. Chem. Chem. Phys. 8, 1057 (2006).

================================================================================
                                        WARNINGS
                       Please study these warnings very carefully!
================================================================================

WARNING: Old DensityContainer found on disk!
         Will remove this file - 
         If you want to keep old densities, please start your calculation with a different basename. 


WARNING: your system is open-shell and RHF/RKS was chosen
  ===> : WILL SWITCH to UHF/UKS


INFO   : the flag for use of the SHARK integral package has been found!

================================================================================
                                       INPUT FILE
================================================================================
NAME = cr_32w_w_freq.inp
|  1> # avogadro generated ORCA file
|  2> # H64O32Cr | Frequencies | wB97X-D3/def2-TZVP
|  3> # 
|  4> ! wB97X-D3BJ def2-TZVPD def2/J RIJCOSX D4 TightSCF CPCM(Water) FREQ
|  5> 
|  6> %maxcore 5120
|  7> 
|  8> %pal
|  9>    nprocs 4
| 10> end
| 11> 
| 12> * xyz 3 2
| 13>    Cr     0.034090   -0.354351   -0.022856
| 14>    H      5.556106   -0.597981   -1.648272
| 15>    H      4.539039   -0.674051   -0.466815
| 16>    O      4.635086   -0.823555   -1.435192
| 17>    H      1.847706   -2.242726   -0.191356
| 18>    H      1.259894   -1.947514   -1.739648
| 19>    O      1.234600   -1.686427   -0.758964
| 20>    H     -3.966456    0.445652    3.202700
| 21>    H     -5.485395    0.608563    2.780090
| 22>    O     -4.574457    0.739474    2.469201
| 23>    H      0.691636    5.296506   -1.766402
| 24>    H      1.542660    4.559159   -2.807689
| 25>    O      0.688127    5.015206   -2.691319
| 26>    H     -4.133857   -0.241403    0.953268
| 27>    H     -3.583601    0.136249   -0.395999
| 28>    O     -3.819816   -0.659663    0.116208
| 29>    H     -1.497123   -2.776829    4.973503
| 30>    H     -2.111961   -2.953019    3.559324
| 31>    O     -1.511226   -2.389649    4.079338
| 32>    H     -1.839858    1.526503    3.627187
| 33>    H     -2.130261    2.772246    2.701452
| 34>    O     -1.397789    2.170087    3.012953
| 35>    H      1.707526    2.063884    3.813023
| 36>    H      0.289071    2.271257    3.150055
| 37>    O      1.239387    2.041285    2.969580
| 38>    H      1.114165    4.678114    0.259435
| 39>    H     -0.282684    5.288265    0.207996
| 40>    O      0.645808    5.481981   -0.011361
| 41>    H     -1.919584    1.311373    0.132963
| 42>    H     -1.234504    1.335598    1.630438
| 43>    O     -1.248668    0.859586    0.747706
| 44>    H      1.747961   -0.850050   -4.292917
| 45>    H      0.871092    0.383788   -4.476674
| 46>    O      1.789793    0.068558   -4.638421
| 47>    H      4.598525   -0.272508    1.953082
| 48>    H      3.173473   -0.189439    1.340364
| 49>    O      4.046600   -0.627449    1.229458
| 50>    H     -0.862723    1.734435   -3.439358
| 51>    H     -1.527613    0.766410   -4.483177
| 52>    O     -0.770536    0.846277   -3.880002
| 53>    H      1.332512    1.899334   -0.200801
| 54>    H      1.726812    1.016929   -1.502271
| 55>    O      0.963464    1.200799   -0.816076
| 56>    H      3.203508   -4.350551   -2.349061
| 57>    H      1.728003   -4.868369   -2.417592
| 58>    O      2.488875   -4.626904   -2.981385
| 59>    H      3.510725    3.879249   -3.685698
| 60>    H      3.099427    2.778567   -2.661523
| 61>    O      3.106285    3.755137   -2.807116
| 62>    H      0.497989   -4.621529   -0.458838
| 63>    H     -0.232254   -5.723721   -1.211815
| 64>    O      0.168894   -4.852247   -1.331766
| 65>    H     -0.356338    3.775615   -2.523675
| 66>    H     -0.239181    2.446596   -1.707263
| 67>    O     -0.864287    2.944398   -2.274694
| 68>    H      3.323907   -2.278160    1.262195
| 69>    H      2.138493   -3.122231    1.757056
| 70>    O      2.730829   -3.011647    0.981894
| 71>    H     -2.327891    2.642525   -1.275610
| 72>    H     -3.234219    2.729915    0.030044
| 73>    O     -2.923052    2.124324   -0.679142
| 74>    H      0.555496   -2.498087   -3.759204
| 75>    H      1.913793   -3.140101   -3.303780
| 76>    O      1.391230   -2.281025   -3.291139
| 77>    H      2.943096    3.141838    0.531066
| 78>    H      1.844983    2.877863    1.614769
| 79>    O      1.982636    3.129963    0.666190
| 80>    H      3.546139    0.355335   -2.154274
| 81>    H      2.515289    0.687913   -3.340132
| 82>    O      2.876625    1.019369   -2.465768
| 83>    H     -4.110807    2.339237    2.023487
| 84>    H     -4.200348    3.893651    2.023551
| 85>    O     -3.616015    3.164914    1.758362
| 86>    H     -1.324025   -1.513027   -1.860992
| 87>    H     -0.928856   -0.056634   -2.512480
| 88>    O     -1.059898   -0.545737   -1.644549
| 89>    H      4.475119   -2.722253   -1.421144
| 90>    H      3.829390   -3.666958   -0.397467
| 91>    O      4.326647   -3.676035   -1.237457
| 92>    H     -2.197656   -1.469503    0.703795
| 93>    H     -1.192099   -2.691326    0.511969
| 94>    O     -1.250094   -1.756528    0.801072
| 95>    H      0.127356   -2.478273    3.469454
| 96>    H      1.591894   -2.290514    3.952634
| 97>    O      1.051907   -2.373377    3.144301
| 98>    H     -2.860349    0.246707    5.253199
| 99>    H     -2.211839   -0.750077    4.216658
|100>    O     -2.668962    0.126554    4.301942
|101>    H      1.168297    0.578350    2.194498
|102>    H      1.092286   -1.054812    2.276459
|103>    O      1.178104   -0.261584    1.640219
|104>    H     -1.654660   -3.033999   -3.171976
|105>    H     -1.099510   -3.638158   -1.884223
|106>    O     -1.752344   -2.973024   -2.196831
|107>    H     -1.233299   -2.100039   -5.319131
|108>    H     -0.861019   -3.598182   -5.405121
|109>    O     -0.916866   -2.845277   -4.788297
|110> *
|111> 
|112> 
|113> 
|114>                          ****END OF INPUT****
================================================================================

                       ****************************
                       * Single Point Calculation *
                       ****************************

---------------------------------
CARTESIAN COORDINATES (ANGSTROEM)
---------------------------------
  Cr     0.034090   -0.354351   -0.022856
  H      5.556106   -0.597981   -1.648272
  H      4.539039   -0.674051   -0.466815
  O      4.635086   -0.823555   -1.435192
  H      1.847706   -2.242726   -0.191356
  H      1.259894   -1.947514   -1.739648
  O      1.234600   -1.686427   -0.758964
  H     -3.966456    0.445652    3.202700
  H     -5.485395    0.608563    2.780090
  O     -4.574457    0.739474    2.469201
  H      0.691636    5.296506   -1.766402
  H      1.542660    4.559159   -2.807689
  O      0.688127    5.015206   -2.691319
  H     -4.133857   -0.241403    0.953268
  H     -3.583601    0.136249   -0.395999
  O     -3.819816   -0.659663    0.116208
  H     -1.497123   -2.776829    4.973503
  H     -2.111961   -2.953019    3.559324
  O     -1.511226   -2.389649    4.079338
  H     -1.839858    1.526503    3.627187
  H     -2.130261    2.772246    2.701452
  O     -1.397789    2.170087    3.012953
  H      1.707526    2.063884    3.813023
  H      0.289071    2.271257    3.150055
  O      1.239387    2.041285    2.969580
  H      1.114165    4.678114    0.259435
  H     -0.282684    5.288265    0.207996
  O      0.645808    5.481981   -0.011361
  H     -1.919584    1.311373    0.132963
  H     -1.234504    1.335598    1.630438
  O     -1.248668    0.859586    0.747706
  H      1.747961   -0.850050   -4.292917
  H      0.871092    0.383788   -4.476674
  O      1.789793    0.068558   -4.638421
  H      4.598525   -0.272508    1.953082
  H      3.173473   -0.189439    1.340364
  O      4.046600   -0.627449    1.229458
  H     -0.862723    1.734435   -3.439358
  H     -1.527613    0.766410   -4.483177
  O     -0.770536    0.846277   -3.880002
  H      1.332512    1.899334   -0.200801
  H      1.726812    1.016929   -1.502271
  O      0.963464    1.200799   -0.816076
  H      3.203508   -4.350551   -2.349061
  H      1.728003   -4.868369   -2.417592
  O      2.488875   -4.626904   -2.981385
  H      3.510725    3.879249   -3.685698
  H      3.099427    2.778567   -2.661523
  O      3.106285    3.755137   -2.807116
  H      0.497989   -4.621529   -0.458838
  H     -0.232254   -5.723721   -1.211815
  O      0.168894   -4.852247   -1.331766
  H     -0.356338    3.775615   -2.523675
  H     -0.239181    2.446596   -1.707263
  O     -0.864287    2.944398   -2.274694
  H      3.323907   -2.278160    1.262195
  H      2.138493   -3.122231    1.757056
  O      2.730829   -3.011647    0.981894
  H     -2.327891    2.642525   -1.275610
  H     -3.234219    2.729915    0.030044
  O     -2.923052    2.124324   -0.679142
  H      0.555496   -2.498087   -3.759204
  H      1.913793   -3.140101   -3.303780
  O      1.391230   -2.281025   -3.291139
  H      2.943096    3.141838    0.531066
  H      1.844983    2.877863    1.614769
  O      1.982636    3.129963    0.666190
  H      3.546139    0.355335   -2.154274
  H      2.515289    0.687913   -3.340132
  O      2.876625    1.019369   -2.465768
  H     -4.110807    2.339237    2.023487
  H     -4.200348    3.893651    2.023551
  O     -3.616015    3.164914    1.758362
  H     -1.324025   -1.513027   -1.860992
  H     -0.928856   -0.056634   -2.512480
  O     -1.059898   -0.545737   -1.644549
  H      4.475119   -2.722253   -1.421144
  H      3.829390   -3.666958   -0.397467
  O      4.326647   -3.676035   -1.237457
  H     -2.197656   -1.469503    0.703795
  H     -1.192099   -2.691326    0.511969
  O     -1.250094   -1.756528    0.801072
  H      0.127356   -2.478273    3.469454
  H      1.591894   -2.290514    3.952634
  O      1.051907   -2.373377    3.144301
  H     -2.860349    0.246707    5.253199
  H     -2.211839   -0.750077    4.216658
  O     -2.668962    0.126554    4.301942
  H      1.168297    0.578350    2.194498
  H      1.092286   -1.054812    2.276459
  O      1.178104   -0.261584    1.640219
  H     -1.654660   -3.033999   -3.171976
  H     -1.099510   -3.638158   -1.884223
  O     -1.752344   -2.973024   -2.196831
  H     -1.233299   -2.100039   -5.319131
  H     -0.861019   -3.598182   -5.405121
  O     -0.916866   -2.845277   -4.788297

----------------------------
CARTESIAN COORDINATES (A.U.)
----------------------------
  NO LB      ZA    FRAG     MASS         X           Y           Z
   0 Cr   24.0000    0    52.000    0.064421   -0.669626   -0.043192
   1 H     1.0000    0     1.008   10.499519   -1.130020   -3.114783
   2 H     1.0000    0     1.008    8.577541   -1.273772   -0.882153
   3 O     8.0000    0    15.999    8.759043   -1.556293   -2.712120
   4 H     1.0000    0     1.008    3.491658   -4.238138   -0.361610
   5 H     1.0000    0     1.008    2.380855   -3.680268   -3.287458
   6 O     8.0000    0    15.999    2.333056   -3.186885   -1.434234
   7 H     1.0000    0     1.008   -7.495516    0.842160    6.052226
   8 H     1.0000    0     1.008  -10.365894    1.150017    5.253609
   9 O     8.0000    0    15.999   -8.644471    1.397403    4.666114
  10 H     1.0000    0     1.008    1.307003   10.008946   -3.338016
  11 H     1.0000    0     1.008    2.915205    8.615562   -5.305763
  12 O     8.0000    0    15.999    1.300372    9.477366   -5.085856
  13 H     1.0000    0     1.008   -7.811858   -0.456186    1.801415
  14 H     1.0000    0     1.008   -6.772024    0.257473   -0.748330
  15 O     8.0000    0    15.999   -7.218406   -1.246582    0.219601
  16 H     1.0000    0     1.008   -2.829152   -5.247446    9.398559
  17 H     1.0000    0     1.008   -3.991028   -5.580397    6.726148
  18 O     8.0000    0    15.999   -2.855803   -4.515782    7.708832
  19 H     1.0000    0     1.008   -3.476828    2.884673    6.854390
  20 H     1.0000    0     1.008   -4.025610    5.238786    5.105004
  21 O     8.0000    0    15.999   -2.641438    4.100870    5.693656
  22 H     1.0000    0     1.008    3.226757    3.900176    7.205569
  23 H     1.0000    0     1.008    0.546265    4.292054    5.952741
  24 O     8.0000    0    15.999    2.342102    3.857470    5.611693
  25 H     1.0000    0     1.008    2.105467    8.840354    0.490261
  26 H     1.0000    0     1.008   -0.534195    9.993373    0.393055
  27 O     8.0000    0    15.999    1.220400   10.359443   -0.021469
  28 H     1.0000    0     1.008   -3.627488    2.478136    0.251264
  29 H     1.0000    0     1.008   -2.332874    2.523914    3.081081
  30 O     8.0000    0    15.999   -2.359641    1.624382    1.412960
  31 H     1.0000    0     1.008    3.303168   -1.606362   -8.112437
  32 H     1.0000    0     1.008    1.646125    0.725254   -8.459688
  33 O     8.0000    0    15.999    3.382219    0.129556   -8.765345
  34 H     1.0000    0     1.008    8.689953   -0.514965    3.690790
  35 H     1.0000    0     1.008    5.996995   -0.357988    2.532921
  36 O     8.0000    0    15.999    7.646966   -1.185707    2.323339
  37 H     1.0000    0     1.008   -1.630310    3.277607   -6.499445
  38 H     1.0000    0     1.008   -2.886770    1.448305   -8.471977
  39 O     8.0000    0    15.999   -1.456102    1.599232   -7.332141
  40 H     1.0000    0     1.008    2.518083    3.589221   -0.379459
  41 H     1.0000    0     1.008    3.263202    1.921717   -2.838881
  42 O     8.0000    0    15.999    1.820683    2.269181   -1.542160
  43 H     1.0000    0     1.008    6.053753   -8.221350   -4.439082
  44 H     1.0000    0     1.008    3.265452   -9.199884   -4.568587
  45 O     8.0000    0    15.999    4.703292   -8.743581   -5.634001
  46 H     1.0000    0     1.008    6.634309    7.330718   -6.964960
  47 H     1.0000    0     1.008    5.857068    5.250731   -5.029550
  48 O     8.0000    0    15.999    5.870028    7.096181   -5.304680
  49 H     1.0000    0     1.008    0.941063   -8.733424   -0.867078
  50 H     1.0000    0     1.008   -0.438896  -10.816265   -2.289998
  51 O     8.0000    0    15.999    0.319163   -9.169418   -2.516673
  52 H     1.0000    0     1.008   -0.673381    7.134878   -4.769055
  53 H     1.0000    0     1.008   -0.451987    4.623396   -3.226260
  54 O     8.0000    0    15.999   -1.633266    5.564106   -4.298549
  55 H     1.0000    0     1.008    6.281274   -4.305098    2.385203
  56 H     1.0000    0     1.008    4.041166   -5.900162    3.320355
  57 O     8.0000    0    15.999    5.160519   -5.691188    1.855511
  58 H     1.0000    0     1.008   -4.399076    4.993649   -2.410554
  59 H     1.0000    0     1.008   -6.111788    5.158792    0.056775
  60 O     8.0000    0    15.999   -5.523768    4.014391   -1.283392
  61 H     1.0000    0     1.008    1.049735   -4.720700   -7.103866
  62 H     1.0000    0     1.008    3.616545   -5.933931   -6.243239
  63 O     8.0000    0    15.999    2.629044   -4.310513   -6.219351
  64 H     1.0000    0     1.008    5.561645    5.937213    1.003569
  65 H     1.0000    0     1.008    3.486513    5.438373    3.051471
  66 O     8.0000    0    15.999    3.746639    5.914773    1.258917
  67 H     1.0000    0     1.008    6.701232    0.671486   -4.070988
  68 H     1.0000    0     1.008    4.753207    1.299967   -6.311935
  69 O     8.0000    0    15.999    5.436033    1.926328   -4.659626
  70 H     1.0000    0     1.008   -7.768299    4.420517    3.823836
  71 H     1.0000    0     1.008   -7.937507    7.357934    3.823957
  72 O     8.0000    0    15.999   -6.833278    5.980821    3.322823
  73 H     1.0000    0     1.008   -2.502045   -2.859207   -3.516765
  74 H     1.0000    0     1.008   -1.755283   -0.107023   -4.747899
  75 O     8.0000    0    15.999   -2.002917   -1.031293   -3.107747
  76 H     1.0000    0     1.008    8.456749   -5.144313   -2.685573
  77 H     1.0000    0     1.008    7.236498   -6.929546   -0.751104
  78 O     8.0000    0    15.999    8.176178   -6.946699   -2.338455
  79 H     1.0000    0     1.008   -4.152968   -2.776958    1.329980
  80 H     1.0000    0     1.008   -2.252741   -5.085869    0.967481
  81 O     8.0000    0    15.999   -2.362335   -3.319357    1.513807
  82 H     1.0000    0     1.008    0.240668   -4.683257    6.556318
  83 H     1.0000    0     1.008    3.008244   -4.328444    7.469396
  84 O     8.0000    0    15.999    1.987816   -4.485033    5.941868
  85 H     1.0000    0     1.008   -5.405276    0.466209    9.927107
  86 H     1.0000    0     1.008   -4.179770   -1.417440    7.968329
  87 O     8.0000    0    15.999   -5.043607    0.239152    8.129492
  88 H     1.0000    0     1.008    2.207761    1.092923    4.147000
  89 H     1.0000    0     1.008    2.064121   -1.993306    4.301884
  90 O     8.0000    0    15.999    2.226294   -0.494322    3.099565
  91 H     1.0000    0     1.008   -3.126854   -5.733427   -5.994166
  92 H     1.0000    0     1.008   -2.077773   -6.875122   -3.560665
  93 O     8.0000    0    15.999   -3.311450   -5.618201   -4.151409
  94 H     1.0000    0     1.008   -2.330597   -3.968499  -10.051701
  95 H     1.0000    0     1.008   -1.627090   -6.799579  -10.214198
  96 O     8.0000    0    15.999   -1.732626   -5.376794   -9.048570

--------------------------------
INTERNAL COORDINATES (ANGSTROEM)
--------------------------------
 Cr     0   0   0     0.000000000000     0.00000000     0.00000000
 H      1   0   0     5.761422867158     0.00000000     0.00000000
 H      2   1   0     1.560785882252    33.27427125     0.00000000
 O      2   1   3     0.971887110870    16.19430593    93.02580191
 H      1   2   3     2.623653061302    44.67662381   289.77667306
 H      5   1   2     1.682225071015    72.01666097   281.81016100
 O      5   1   2     1.003766101391    38.29779654   284.44988461
 H      1   2   3     5.200825377501   156.74056824    25.76678743
 H      8   1   2     1.585028356763   125.98608960   164.40869580
 O      9   8   1     0.971389571740    36.91926311   332.04512636
 H      1   2   3     5.950168420363    81.46429100   113.46151174
 H     11   1   2     1.533688711360    78.67838192    37.15475584
 O     11   1   2     0.966754084538    90.20659867    73.66102101
 H     10   9   8     1.858574967446   114.34494156   119.03529730
 H     14  10   9     1.505298686616   133.26314287   125.04347567
 O     15  14  10     0.975514965963    40.19572147   175.32339309
 H      8   1   2     4.429190956039    72.97415254   299.04437422
 H     17   8   1     1.552085991943    59.83181759   300.93732147
 O     18  17   8     0.974003520179    37.20853584    59.70204046
 H      8   1   2     2.422983109923    60.14214269    22.88061806
 H     20   8   1     1.578985375069    95.03734988    86.21227263
 O     20   8   1     0.993432822376   124.83592527    61.31111562
 H     22  20   8     3.208484429031   104.77715905   202.60404972
 H     23  22  20     1.579412776059    11.97767073   165.70975216
 O     23  22  20     0.964914987121    46.62627865   133.58412222
 H     11   1   2     2.159850682819    58.32270478   270.88063152
 H     26  11   1     1.525161415170    71.01346743   261.58578144
 O     26  11   1     0.968963831499    53.54315455   222.54155625
 H     15  14  10     2.104678072559   101.75998951    50.66268340
 H     22  20   8     1.623077819321   103.78870706   302.34035123
 O     30  22  20     1.002997421165   172.85586961    87.11659520
 H      6   5   1     2.821669579193   147.20881169   107.77822742
 H     32   6   5     1.524802311270   108.92325644   249.28190708
 O     32   6   5     0.982325601776   133.57815116   285.75853801
 H      3   2   1     2.453706758285   136.28273289   205.45983297
 H     35   3   2     1.553414628806    66.26625119   158.22623344
 O     35   3   2     0.976850046057    36.51269473   189.08256469
 H     33  32   6     2.430305794893   143.95243786   356.60749340
 H     38  33  32     1.571212658263    71.09133281   261.02053940
 O     39  38  33     0.971269479724    37.52600277    29.34154954
 H      1   2   3     2.607040504544    62.60964653    93.96885269
 H     41   1   2     1.621090754685    72.86570901    43.23395282
 O     41   1   2     1.001354531699    41.87061016    71.07669301
 H      6   5   1     3.150175615570    80.13038851   183.76823983
 H     44   6   5     1.565230648853    71.28957557   105.96452420
 O     45  44   6     0.977289155500    37.77668429   104.97575079
 H     12  11   1     2.259747166478   153.08952798   257.05557941
 H     47  12  11     1.558717851490    74.17842085    88.69535508
 O     47  12  11     0.975131700268    47.70124237    57.36147293
 H     45  44   6     2.326065703782   115.24607234   300.38348839
 H     50  45  44     1.521530941664    76.12431164   201.67086958
 O     50  45  44     0.961008640821    52.46110386   168.13636106
 H     13  11   1     1.629600409377    97.19458755    33.86261647
 H     53  13  11     1.564143797339   130.69369689   296.36528455
 O     54  53  13     0.980072590271    38.59817810   177.20899501
 H     37  35   3     1.802277361823   123.08623630   126.57575781
 H     56  37  35     1.537058754166   144.89153114    84.06826748
 O     57  56  37     0.981818152305    38.61828293   141.20162629
 H     55  54  53     1.797618651439    96.44378230   222.16272702
 H     59  55  54     1.591791388154   155.53810571    63.12469844
 O     60  59  55     0.983112477678    36.31927308   223.39144918
 H     32   6   5     2.103056893183    50.76470808   148.78442495
 H     62  32   6     1.569892905959    84.46249332   295.58589776
 O     62  32   6     0.982167030003    57.67491795   325.02382200
 H     41   1   2     2.161810888297   147.64986436   295.64152113
 H     65  41   1     1.565230702997    67.34287243   296.07297899
 O     65  41   1     0.969991197177    45.76752734   258.55732343
 H      4   2   1     1.758597771986   109.97240494    47.09238591
 H     68   4   2     1.606088118612   146.94599761   102.62207629
 O     68   4   2     0.993085425020   173.69612429   223.04012109
 H     10   9   8     1.724202409366   117.38361418   239.05006399
 H     71  10   9     1.556990840748   155.61851076    22.63246544
 O     72  71  10     0.970993241881    38.38240385   167.31405689
 H      1   2   3     2.562372022306   106.64827040   217.84039706
 H     74   1   2     1.643677499741    75.89140937   284.64626888
 O     75  74   1     1.004837285900    36.38999842   336.24222957
 H      4   2   1     1.905476549999   108.20675774   191.46887081
 H     77   4   2     1.535365780130   130.79316626   132.23570017
 O     78  77   4     0.976181395069    38.53517181   182.48383802
 H     16  15  14     1.905912477993   107.60546289   255.00039081
 H     80  16  15     1.593986680576   145.64164772   252.72275187
 O     81  80  16     0.980199604896    36.50207760   152.92690164
 H     19  18  17     1.750646645544   111.22372284   115.27835468
 H     83  19  18     1.553572627181   140.16373402   205.40679280
 O     84  83  19     0.975630296694    37.84239718   194.02377273
 H     20   8   1     2.307204955534    59.19117971   234.07802035
 H     86  20   8     1.577517292278    72.87791222    76.83404361
 O     86  20   8     0.977729823227    45.24427727    47.24016297
 H     25  23  22     1.657101297160   116.76557495   253.86680489
 H     85  84  83     1.579048403257   111.73287146   115.62958856
 O     89  25  23     1.006384872425   173.72285571   240.13937917
 H     74   1   2     2.035031787532   152.40011574    45.42626476
 H     92  74   1     1.526927440578    72.14255872    38.09905892
 O     92  74   1     0.981920508751    47.93206303    74.13981604
 H     92  74   1     2.379096670576   105.02401554   250.91464018
 H     95  92  74     1.546098032774    73.28854252   149.30919175
 O     95  92  74     0.968139584817    42.34129691   123.66379953

---------------------------
INTERNAL COORDINATES (A.U.)
---------------------------
 Cr     0   0   0     0.000000000000     0.00000000     0.00000000
 H      1   0   0    10.887511360640     0.00000000     0.00000000
 H      2   1   0     2.949457871147    33.27427125     0.00000000
 O      2   1   3     1.836600472633    16.19430593    93.02580191
 H      1   2   3     4.957985756285    44.67662381   289.77667306
 H      5   1   2     3.178944679835    72.01666097   281.81016100
 O      5   1   2     1.896843034142    38.29779654   284.44988461
 H      1   2   3     9.828135633825   156.74056824    25.76678743
 H      8   1   2     2.995269508781   125.98608960   164.40869580
 O      9   8   1     1.835660259936    36.91926311   332.04512636
 H      1   2   3    11.244188765192    81.46429100   113.46151174
 H     11   1   2     2.898251639158    78.67838192    37.15475584
 O     11   1   2     1.826900458626    90.20659867    73.66102101
 H     10   9   8     3.512197687835   114.34494156   119.03529730
 H     14  10   9     2.844602267456   133.26314287   125.04347567
 O     15  14  10     1.843456125212    40.19572147   175.32339309
 H      8   1   2     8.369957901755    72.97415254   299.04437422
 H     17   8   1     2.933017461067    59.83181759   300.93732147
 O     18  17   8     1.840599906613    37.20853584    59.70204046
 H      8   1   2     4.578774504872    60.14214269    22.88061806
 H     20   8   1     2.983849928348    95.03734988    86.21227263
 O     20   8   1     1.877315966738   124.83592527    61.31111562
 H     22  20   8     6.063156875819   104.77715905   202.60404972
 H     23  22  20     2.984657599168    11.97767073   165.70975216
 O     23  22  20     1.823425068175    46.62627865   133.58412222
 H     11   1   2     4.081526280691    58.32270478   270.88063152
 H     26  11   1     2.882137384695    71.01346743   261.58578144
 O     26  11   1     1.831076275209    53.54315455   222.54155625
 H     15  14  10     3.977265157205   101.75998951    50.66268340
 H     22  20   8     3.067172572558   103.78870706   302.34035123
 O     30  22  20     1.895390439031   172.85586961    87.11659520
 H      6   5   1     5.332182745093   147.20881169   107.77822742
 H     32   6   5     2.881458776670   108.92325644   249.28190708
 O     32   6   5     1.856326361695   133.57815116   285.75853801
 H      3   2   1     4.636833786111   136.28273289   205.45983297
 H     35   3   2     2.935528220871    66.26625119   158.22623344
 O     35   3   2     1.845979060957    36.51269473   189.08256469
 H     33  32   6     4.592612374029   143.95243786   356.60749340
 H     38  33  32     2.969161622268    71.09133281   261.02053940
 O     39  38  33     1.835433318914    37.52600277    29.34154954
 H      1   2   3     4.926592573628    62.60964653    93.96885269
 H     41   1   2     3.063417564586    72.86570901    43.23395282
 O     41   1   2     1.892285827872    41.87061016    71.07669301
 H      6   5   1     5.952969187185    80.13038851   183.76823983
 H     44   6   5     2.957857262753    71.28957557   105.96452420
 O     45  44   6     1.846808857546    37.77668429   104.97575079
 H     12  11   1     4.270303276548   153.08952798   257.05557941
 H     47  12  11     2.945549859370    74.17842085    88.69535508
 O     47  12  11     1.842731858012    47.70124237    57.36147293
 H     45  44   6     4.395627149655   115.24607234   300.38348839
 H     50  45  44     2.875276784033    76.12431164   201.67086958
 O     50  45  44     1.816043143484    52.46110386   168.13636106
 H     13  11   1     3.079498481449    97.19458755    33.86261647
 H     53  13  11     2.955803411042   130.69369689   296.36528455
 O     54  53  13     1.852068786975    38.59817810   177.20899501
 H     37  35   3     3.405810631211   123.08623630   126.57575781
 H     56  37  35     2.904620097120   144.89153114    84.06826748
 O     57  56  37     1.855367421169    38.61828293   141.20162629
 H     55  54  53     3.397006944448    96.44378230   222.16272702
 H     59  55  54     3.008049785945   155.53810571    63.12469844
 O     60  59  55     1.857813341652    36.31927308   223.39144918
 H     32   6   5     3.974201572170    50.76470808   148.78442495
 H     62  32   6     2.966667651849    84.46249332   295.58589776
 O     62  32   6     1.856026704473    57.67491795   325.02382200
 H     41   1   2     4.085230532211   147.64986436   295.64152113
 H     65  41   1     2.957857365068    67.34287243   296.07297899
 O     65  41   1     1.833017714979    45.76752734   258.55732343
 H      4   2   1     3.323268168777   109.97240494    47.09238591
 H     68   4   2     3.035066691122   146.94599761   102.62207629
 O     68   4   2     1.876659480877   173.69612429   223.04012109
 H     10   9   8     3.258270353150   117.38361418   239.05006399
 H     71  10   9     2.942286282037   155.61851076    22.63246544
 O     72  71  10     1.834911305044    38.38240385   167.31405689
 H      1   2   3     4.842181375380   106.64827040   217.84039706
 H     74   1   2     3.106100326998    75.89140937   284.64626888
 O     75  74   1     1.898867279503    36.38999842   336.24222957
 H      4   2   1     3.600828834108   108.20675774   191.46887081
 H     77   4   2     2.901420839841   130.79316626   132.23570017
 O     78  77   4     1.844715493709    38.53517181   182.48383802
 H     16  15  14     3.601652618630   107.60546289   255.00039081
 H     80  16  15     3.012198287407   145.64164772   252.72275187
 O     81  80  16     1.852308809831    36.50207760   152.92690164
 H     19  18  17     3.308242717347   111.22372284   115.27835468
 H     83  19  18     2.935826794528   140.16373402   205.40679280
 O     84  83  19     1.843674068708    37.84239718   194.02377273
 H     20   8   1     4.359985500785    59.19117971   234.07802035
 H     86  20   8     2.981075653931    72.87791222    76.83404361
 O     86  20   8     1.847641598866    45.24427727    47.24016297
 H     25  23  22     3.131467627798   116.76557495   253.86680489
 H     85  84  83     2.983969034362   111.73287146   115.62958856
 O     89  25  23     1.901791794205   173.72285571   240.13937917
 H     74   1   2     3.845652752259   152.40011574    45.42626476
 H     92  74   1     2.885474689062    72.14255872    38.09905892
 O     92  74   1     1.855560846820    47.93206303    74.13981604
 H     92  74   1     4.495841153513   105.02401554   250.91464018
 H     95  92  74     2.921701858138    73.28854252   149.30919175
 O     95  92  74     1.829518674712    42.34129691   123.66379953

---------------------
BASIS SET INFORMATION
---------------------
There are 3 groups of distinct atoms

 Group   1 Type Cr  : 17s12p7d1f contracted to 6s5p4d1f pattern {842111/63111/4111/1}
 Group   2 Type H   : 5s2p contracted to 3s2p pattern {311/11}
 Group   3 Type O   : 12s7p3d1f contracted to 6s4p3d1f pattern {621111/4111/111/1}

Atom   0Cr   basis set group =>   1
Atom   1H    basis set group =>   2
Atom   2H    basis set group =>   2
Atom   3O    basis set group =>   3
Atom   4H    basis set group =>   2
Atom   5H    basis set group =>   2
Atom   6O    basis set group =>   3
Atom   7H    basis set group =>   2
Atom   8H    basis set group =>   2
Atom   9O    basis set group =>   3
Atom  10H    basis set group =>   2
Atom  11H    basis set group =>   2
Atom  12O    basis set group =>   3
Atom  13H    basis set group =>   2
Atom  14H    basis set group =>   2
Atom  15O    basis set group =>   3
Atom  16H    basis set group =>   2
Atom  17H    basis set group =>   2
Atom  18O    basis set group =>   3
Atom  19H    basis set group =>   2
Atom  20H    basis set group =>   2
Atom  21O    basis set group =>   3
Atom  22H    basis set group =>   2
Atom  23H    basis set group =>   2
Atom  24O    basis set group =>   3
Atom  25H    basis set group =>   2
Atom  26H    basis set group =>   2
Atom  27O    basis set group =>   3
Atom  28H    basis set group =>   2
Atom  29H    basis set group =>   2
Atom  30O    basis set group =>   3
Atom  31H    basis set group =>   2
Atom  32H    basis set group =>   2
Atom  33O    basis set group =>   3
Atom  34H    basis set group =>   2
Atom  35H    basis set group =>   2
Atom  36O    basis set group =>   3
Atom  37H    basis set group =>   2
Atom  38H    basis set group =>   2
Atom  39O    basis set group =>   3
Atom  40H    basis set group =>   2
Atom  41H    basis set group =>   2
Atom  42O    basis set group =>   3
Atom  43H    basis set group =>   2
Atom  44H    basis set group =>   2
Atom  45O    basis set group =>   3
Atom  46H    basis set group =>   2
Atom  47H    basis set group =>   2
Atom  48O    basis set group =>   3
Atom  49H    basis set group =>   2
Atom  50H    basis set group =>   2
Atom  51O    basis set group =>   3
Atom  52H    basis set group =>   2
Atom  53H    basis set group =>   2
Atom  54O    basis set group =>   3
Atom  55H    basis set group =>   2
Atom  56H    basis set group =>   2
Atom  57O    basis set group =>   3
Atom  58H    basis set group =>   2
Atom  59H    basis set group =>   2
Atom  60O    basis set group =>   3
Atom  61H    basis set group =>   2
Atom  62H    basis set group =>   2
Atom  63O    basis set group =>   3
Atom  64H    basis set group =>   2
Atom  65H    basis set group =>   2
Atom  66O    basis set group =>   3
Atom  67H    basis set group =>   2
Atom  68H    basis set group =>   2
Atom  69O    basis set group =>   3
Atom  70H    basis set group =>   2
Atom  71H    basis set group =>   2
Atom  72O    basis set group =>   3
Atom  73H    basis set group =>   2
Atom  74H    basis set group =>   2
Atom  75O    basis set group =>   3
Atom  76H    basis set group =>   2
Atom  77H    basis set group =>   2
Atom  78O    basis set group =>   3
Atom  79H    basis set group =>   2
Atom  80H    basis set group =>   2
Atom  81O    basis set group =>   3
Atom  82H    basis set group =>   2
Atom  83H    basis set group =>   2
Atom  84O    basis set group =>   3
Atom  85H    basis set group =>   2
Atom  86H    basis set group =>   2
Atom  87O    basis set group =>   3
Atom  88H    basis set group =>   2
Atom  89H    basis set group =>   2
Atom  90O    basis set group =>   3
Atom  91H    basis set group =>   2
Atom  92H    basis set group =>   2
Atom  93O    basis set group =>   3
Atom  94H    basis set group =>   2
Atom  95H    basis set group =>   2
Atom  96O    basis set group =>   3
---------------------------------
AUXILIARY/J BASIS SET INFORMATION
---------------------------------
There are 3 groups of distinct atoms

 Group   1 Type Cr  : 19s5p5d3f3g contracted to 8s5p5d2f3g pattern {121111111/11111/11111/21/111}
 Group   2 Type H   : 5s2p1d contracted to 3s1p1d pattern {311/2/1}
 Group   3 Type O   : 12s5p4d2f1g contracted to 6s4p3d1f1g pattern {711111/2111/211/2/1}

Atom   0Cr   basis set group =>   1
Atom   1H    basis set group =>   2
Atom   2H    basis set group =>   2
Atom   3O    basis set group =>   3
Atom   4H    basis set group =>   2
Atom   5H    basis set group =>   2
Atom   6O    basis set group =>   3
Atom   7H    basis set group =>   2
Atom   8H    basis set group =>   2
Atom   9O    basis set group =>   3
Atom  10H    basis set group =>   2
Atom  11H    basis set group =>   2
Atom  12O    basis set group =>   3
Atom  13H    basis set group =>   2
Atom  14H    basis set group =>   2
Atom  15O    basis set group =>   3
Atom  16H    basis set group =>   2
Atom  17H    basis set group =>   2
Atom  18O    basis set group =>   3
Atom  19H    basis set group =>   2
Atom  20H    basis set group =>   2
Atom  21O    basis set group =>   3
Atom  22H    basis set group =>   2
Atom  23H    basis set group =>   2
Atom  24O    basis set group =>   3
Atom  25H    basis set group =>   2
Atom  26H    basis set group =>   2
Atom  27O    basis set group =>   3
Atom  28H    basis set group =>   2
Atom  29H    basis set group =>   2
Atom  30O    basis set group =>   3
Atom  31H    basis set group =>   2
Atom  32H    basis set group =>   2
Atom  33O    basis set group =>   3
Atom  34H    basis set group =>   2
Atom  35H    basis set group =>   2
Atom  36O    basis set group =>   3
Atom  37H    basis set group =>   2
Atom  38H    basis set group =>   2
Atom  39O    basis set group =>   3
Atom  40H    basis set group =>   2
Atom  41H    basis set group =>   2
Atom  42O    basis set group =>   3
Atom  43H    basis set group =>   2
Atom  44H    basis set group =>   2
Atom  45O    basis set group =>   3
Atom  46H    basis set group =>   2
Atom  47H    basis set group =>   2
Atom  48O    basis set group =>   3
Atom  49H    basis set group =>   2
Atom  50H    basis set group =>   2
Atom  51O    basis set group =>   3
Atom  52H    basis set group =>   2
Atom  53H    basis set group =>   2
Atom  54O    basis set group =>   3
Atom  55H    basis set group =>   2
Atom  56H    basis set group =>   2
Atom  57O    basis set group =>   3
Atom  58H    basis set group =>   2
Atom  59H    basis set group =>   2
Atom  60O    basis set group =>   3
Atom  61H    basis set group =>   2
Atom  62H    basis set group =>   2
Atom  63O    basis set group =>   3
Atom  64H    basis set group =>   2
Atom  65H    basis set group =>   2
Atom  66O    basis set group =>   3
Atom  67H    basis set group =>   2
Atom  68H    basis set group =>   2
Atom  69O    basis set group =>   3
Atom  70H    basis set group =>   2
Atom  71H    basis set group =>   2
Atom  72O    basis set group =>   3
Atom  73H    basis set group =>   2
Atom  74H    basis set group =>   2
Atom  75O    basis set group =>   3
Atom  76H    basis set group =>   2
Atom  77H    basis set group =>   2
Atom  78O    basis set group =>   3
Atom  79H    basis set group =>   2
Atom  80H    basis set group =>   2
Atom  81O    basis set group =>   3
Atom  82H    basis set group =>   2
Atom  83H    basis set group =>   2
Atom  84O    basis set group =>   3
Atom  85H    basis set group =>   2
Atom  86H    basis set group =>   2
Atom  87O    basis set group =>   3
Atom  88H    basis set group =>   2
Atom  89H    basis set group =>   2
Atom  90O    basis set group =>   3
Atom  91H    basis set group =>   2
Atom  92H    basis set group =>   2
Atom  93O    basis set group =>   3
Atom  94H    basis set group =>   2
Atom  95H    basis set group =>   2
Atom  96O    basis set group =>   3

Checking for AutoStart:
The File: cr_32w_w_freq.gbw exists
Trying to determine its content:
     ... Fine, the file contains calculation information
     ... Fine, the calculation information was read
     ... Fine, the file contains a basis set
     ... Fine, the basis set was read
     ... Fine, the file contains a geometry
     ... Fine, the geometry was read
     ... Fine, the file contains a set of orbitals
     ... Fine, the orbitals can be read
     => possible old guess file was deleted
     => GBW file was renamed to GES file
     => GES file is set as startup file
     => Guess is set to MORead
     ... now leaving AutoStart



           ************************************************************
           *        Program running with 4 parallel MPI-processes     *
           *              working on a common directory               *
           ************************************************************
------------------------------------------------------------------------------
                           ORCA GTO INTEGRAL CALCULATION
                           -- RI-GTO INTEGRALS CHOSEN --
------------------------------------------------------------------------------
------------------------------------------------------------------------------
                   ___                                                        
                  /   \      - P O W E R E D   B Y -                         
                 /     \                                                     
                 |  |  |   _    _      __       _____    __    __             
                 |  |  |  | |  | |    /  \     |  _  \  |  |  /  |          
                  \  \/   | |  | |   /    \    | | | |  |  | /  /          
                 / \  \   | |__| |  /  /\  \   | |_| |  |  |/  /          
                |  |  |   |  __  | /  /__\  \  |    /   |      \           
                |  |  |   | |  | | |   __   |  |    \   |  |\   \          
                \     /   | |  | | |  |  |  |  | |\  \  |  | \   \       
                 \___/    |_|  |_| |__|  |__|  |_| \__\ |__|  \__/        
                                                                              
                      - O R C A' S   B I G   F R I E N D -                    
                                      &                                       
                       - I N T E G R A L  F E E D E R -                       
                                                                              
 v1 FN, 2020, v2 2021                                                         
------------------------------------------------------------------------------


Reading SHARK input file cr_32w_w_freq.SHARKINP.tmp ... ok
----------------------
SHARK INTEGRAL PACKAGE
----------------------

Number of atoms                             ...     97
Number of basis functions                   ...   1904
Number of shells                            ...    784
Maximum angular momentum                    ...      3
Integral batch strategy                     ... SHARK/LIBINT Hybrid
RI-J (if used) integral strategy            ... SPLIT-RIJ (Revised 2003 algorithm where possible)
Printlevel                                  ...      1
Contraction scheme used                     ... SEGMENTED contraction
Coulomb Range Separation                    ... NOT USED
Exchange Range Separation                   ... Long Range
   Mu parameter                             ...  0.300000
   Scaling (regular/separated)              ...  0.167000  0.833000
Finite Nucleus Model                        ... NOT USED
Auxiliary Coulomb fitting basis             ... AVAILABLE
   # of basis functions in Aux-J            ...   2361
   # of shells in Aux-J                     ...    823
   Maximum angular momentum in Aux-J        ...      4
Auxiliary J/K fitting basis                 ... NOT available
Auxiliary Correlation fitting basis         ... NOT available
Auxiliary 'external' fitting basis          ... NOT available
Integral threshold                          ...     2.500000e-11
Primitive cut-off                           ...     2.500000e-12
Primitive pair pre-selection threshold      ...     2.500000e-12

Calculating pre-screening integrals         ... done (  0.2 sec) Dimension = 784
Organizing shell pair data                  ... done (  1.1 sec)
Shell pair information
Total number of shell pairs                 ...    307720
Shell pairs after pre-screening             ...    206188
Total number of primitive shell pairs       ...    746986
Primitive shell pairs kept                  ...    344145
          la=0 lb=0:  47286 shell pairs
          la=1 lb=0:  72668 shell pairs
          la=1 lb=1:  26984 shell pairs
          la=2 lb=0:  24399 shell pairs
          la=2 lb=1:  18880 shell pairs
          la=2 lb=2:   3240 shell pairs
          la=3 lb=0:   5978 shell pairs
          la=3 lb=1:   5092 shell pairs
          la=3 lb=2:   1532 shell pairs
          la=3 lb=3:    129 shell pairs

Calculating one electron integrals          ... done (  0.3 sec)
Calculating RI/J V-Matrix + Cholesky decomp.... done (  0.2 sec)
Calculating Nuclear repulsion               ... done (  0.0 sec) ENN=   6483.207217212710 Eh

SHARK setup successfully completed in   2.6 seconds

Maximum memory used throughout the entire GTOINT-calculation: 270.6 MB


           ************************************************************
           *        Program running with 4 parallel MPI-processes     *
           *              working on a common directory               *
           ************************************************************
-------------------------------------------------------------------------------
                                 ORCA SCF
-------------------------------------------------------------------------------

------------
SCF SETTINGS
------------
Hamiltonian:
 Density Functional     Method          .... DFT(GTOs)
 Exchange Functional    Exchange        .... WB97X-V
 Correlation Functional Correlation     .... WB97X-V
 Gradients option       PostSCFGGA      .... off
 Hybrid DFT is turned on
   Fraction HF Exchange ScalHFX         ....  0.167000
   Scaling of DF-GGA-X  ScalDFX         ....  0.000000
   Scaling of DF-GGA-C  ScalDFC         ....  1.000000
   Scaling of DF-LDA-C  ScalLDAC        ....  1.000000
   Perturbative correction              ....  0.000000
   Density functional embedding theory  .... OFF
 Long-range corrected/Screened/Range-Separated Hybrid DFT is turned on
   Amount of maximum screened exact exchange              ....  0.833000
   Range separation parameter mu (erf(mu*r12)/r12)        ....  0.300000
 RI-approximation to the Coulomb term is turned on
   Number of AuxJ basis functions       .... 2361
   RIJ-COSX (HFX calculated with COS-X)).... on


General Settings:
 Integral files         IntName         .... cr_32w_w_freq
 Hartree-Fock type      HFTyp           .... UHF
 Total Charge           Charge          ....    3
 Multiplicity           Mult            ....    2
 Number of Electrons    NEL             ....  341
 Basis Dimension        Dim             .... 1904
 Nuclear Repulsion      ENuc            ....   6483.2072172127 Eh

Convergence Acceleration:
 DIIS                   CNVDIIS         .... on
   Start iteration      DIISMaxIt       ....    12
   Startup error        DIISStart       ....  0.200000
   # of expansion vecs  DIISMaxEq       ....     5
   Bias factor          DIISBfac        ....   1.050
   Max. coefficient     DIISMaxC        ....  10.000
 Trust-Rad. Augm. Hess. CNVTRAH         .... auto
   Auto Start mean grad. ratio tolernc. ....  1.125000
   Auto Start start iteration           ....     1
   Auto Start num. interpolation iter.  ....    10
   Max. Number of Micro iterations      ....    16
   Max. Number of Macro iterations      .... Maxiter - #DIIS iter
   Number of Davidson start vectors     ....     2
   Converg. threshold I  (grad. norm)   ....   1.000e-05
   Converg. threshold II (energy diff.) ....   1.000e-08
   Grad. Scal. Fac. for Micro threshold ....   0.100
   Minimum threshold for Micro iter.    ....   0.010
   NR start threshold (gradient norm)   ....   0.001
   Initial trust radius                 ....   0.400
   Minimum AH scaling param. (alpha)    ....   1.000
   Maximum AH scaling param. (alpha)    .... 1000.000
   Orbital update algorithm             .... Taylor
   White noise on init. David. guess    .... on
   Maximum white noise                  ....   0.010
   Quad. conv. algorithm                .... NR
 SOSCF                  CNVSOSCF        .... off
 Level Shifting         CNVShift        .... on
   Level shift para.    LevelShift      ....    0.2500
   Turn off err/grad.   ShiftErr        ....    0.0010
 Zerner damping         CNVZerner       .... off
 Static damping         CNVDamp         .... on
   Fraction old density DampFac         ....    0.7000
   Max. Damping (<1)    DampMax         ....    0.9800
   Min. Damping (>=0)   DampMin         ....    0.0000
   Turn off err/grad.   DampErr         ....    0.1000
 Fernandez-Rico         CNVRico         .... off

SCF Procedure:
 Maximum # iterations   MaxIter         ....   125
 SCF integral mode      SCFMode         .... Direct
   Integral package                     .... SHARK and LIBINT hybrid scheme
 Reset frequency        DirectResetFreq ....    20
 Integral Threshold     Thresh          ....  2.500e-11 Eh
 Primitive CutOff       TCut            ....  2.500e-12 Eh

Convergence Tolerance:
 Convergence Check Mode ConvCheckMode   .... Total+1el-Energy
 Convergence forced     ConvForced      .... 0
 Energy Change          TolE            ....  1.000e-08 Eh
 1-El. energy change                    ....  1.000e-05 Eh
 DIIS Error             TolErr          ....  5.000e-07


Diagonalization of the overlap matrix:
Smallest eigenvalue                        ... 1.064e-07
Time for diagonalization                   ...    0.298 sec
Threshold for overlap eigenvalues          ... 1.000e-08
Number of eigenvalues below threshold      ... 0
Time for construction of square roots      ...    0.275 sec
Total time needed                          ...    0.585 sec

---------------------
INITIAL GUESS: MOREAD
---------------------
Guess MOs are being read from file: cr_32w_w_freq.ges
Input Geometry matches current geometry (good)
Input basis set matches current basis set (good)
MOs were renormalized
MOs were reorthogonalized (Cholesky)
                      ------------------
                      INITIAL GUESS DONE (   2.7 sec)
                      ------------------
-------------------
DFT GRID GENERATION
-------------------

General Integration Accuracy     IntAcc      ... 4.388
Radial Grid Type                 RadialGrid  ... OptM3 with GC (2021)
Angular Grid (max. ang.)         AngularGrid ... 4 (Lebedev-302)
Angular grid pruning method      GridPruning ... 4 (adaptive)
Weight generation scheme         WeightScheme... Becke
Basis function cutoff            BFCut       ... 1.0000e-11
Integration weight cutoff        WCut        ... 1.0000e-14
Angular grids for H and He will be reduced by one unit
Partially contracted basis set               ... off
Rotationally invariant grid construction     ... off

Total number of grid points                  ...   422544
Total number of batches                      ...     6653
Average number of points per batch           ...       63
Average number of grid points per atom       ...     4356
Time for grid setup =    3.535 sec

--------------------
COSX GRID GENERATION
--------------------

GRIDX 1
-------
General Integration Accuracy     IntAcc      ... 3.816
Radial Grid Type                 RadialGrid  ... OptM3 with GC (2021)
Angular Grid (max. ang.)         AngularGrid ... 1 (Lebedev-50)
Angular grid pruning method      GridPruning ... 4 (adaptive)
Weight generation scheme         WeightScheme... Becke
Basis function cutoff            BFCut       ... 1.0000e-11
Integration weight cutoff        WCut        ... 1.0000e-14
Angular grids for H and He will be reduced by one unit
Partially contracted basis set               ... on
Rotationally invariant grid construction     ... off

Total number of grid points                  ...    52295
Total number of batches                      ...      861
Average number of points per batch           ...       60
Average number of grid points per atom       ...      539
UseSFitting                                  ... on

GRIDX 2
-------
General Integration Accuracy     IntAcc      ... 4.020
Radial Grid Type                 RadialGrid  ... OptM3 with GC (2021)
Angular Grid (max. ang.)         AngularGrid ... 2 (Lebedev-110)
Angular grid pruning method      GridPruning ... 4 (adaptive)
Weight generation scheme         WeightScheme... Becke
Basis function cutoff            BFCut       ... 1.0000e-11
Integration weight cutoff        WCut        ... 1.0000e-14
Angular grids for H and He will be reduced by one unit
Partially contracted basis set               ... on
Rotationally invariant grid construction     ... off

Total number of grid points                  ...   116288
Total number of batches                      ...     1866
Average number of points per batch           ...       62
Average number of grid points per atom       ...     1199
UseSFitting                                  ... on

GRIDX 3
-------
General Integration Accuracy     IntAcc      ... 4.338
Radial Grid Type                 RadialGrid  ... OptM3 with GC (2021)
Angular Grid (max. ang.)         AngularGrid ... 3 (Lebedev-194)
Angular grid pruning method      GridPruning ... 4 (adaptive)
Weight generation scheme         WeightScheme... Becke
Basis function cutoff            BFCut       ... 1.0000e-11
Integration weight cutoff        WCut        ... 1.0000e-14
Angular grids for H and He will be reduced by one unit
Partially contracted basis set               ... on
Rotationally invariant grid construction     ... off

Total number of grid points                  ...   256161
Total number of batches                      ...     4051
Average number of points per batch           ...       63
Average number of grid points per atom       ...     2641
UseSFitting                                  ... on

Time for X-Grid setup             =    9.327 sec


--------------------
CPCM SOLVATION MODEL
--------------------
CPCM parameters:
  Epsilon                                         ...      80.4000
  Refrac                                          ...       1.3300
  Rsolv                                           ...       1.3000
  Surface type                                    ... GAUSSIAN VDW
  Epsilon function type                           ...         CPCM
Radii:
 Radius for Cr used is    4.5353 Bohr (=   2.4000 Ang.)
 Radius for H  used is    2.4944 Bohr (=   1.3200 Ang.)
 Radius for O  used is    3.4469 Bohr (=   1.8240 Ang.)
Calculating surface                               ...        done! (  0.0s)
GEPOL surface points                              ...         5537
GEPOL Volume                                      ...    4793.7321
GEPOL Surface-area                                ...    2571.2268
Calculating surface distance matrix               ...        done! (  0.1s)
Performing Cholesky decomposition & store         ...        done! (  0.7s)
Overall time for CPCM initialization              ...                 0.9s
--------------
SCF ITERATIONS
--------------
ITER       Energy         Delta-E        Max-DP      RMS-DP      [F,P]     Damp
               ***  Starting incremental Fock matrix formation  ***
  0  -3491.8204690702   0.000000000000 0.00083864  0.00000106  0.0000002 0.7000
  1  -3491.8204690819  -0.000000011637 0.00121692  0.00000154  0.0000002 0.7000
                               ***Turning on DIIS***
                            ***DIIS convergence achieved***

               *****************************************************
               *                     SUCCESS                       *
               *           SCF CONVERGED AFTER   2 CYCLES          *
               *****************************************************

Old exchange energy                            =   -100.727299522 Eh
New exchange energy                            =   -100.727366273 Eh
Exchange energy change after final integration =     -0.000066751 Eh
Total energy after final integration           =  -3491.820535651 Eh
Final COS-X integration done in                =   467.458 sec

----------------
TOTAL SCF ENERGY
----------------

Total Energy       :        -3491.82053565 Eh          -95017.26736 eV

Components:
Nuclear Repulsion  :         6483.20721721 Eh          176417.03725 eV
Electronic Energy  :        -9975.02775286 Eh         -271434.30461 eV
One Electron Energy:       -17639.09781069 Eh         -479984.25336 eV
Two Electron Energy:         7664.07005783 Eh          208549.94875 eV
Max COSX asymmetry :            0.00001821 Eh               0.00050 eV
CPCM Dielectric    :           -0.59629252 Eh             -16.22594 eV

Virial components:
Potential Energy   :        -6971.29959197 Eh         -189698.70599 eV
Kinetic Energy     :         3479.47905632 Eh           94681.43863 eV
Virial Ratio       :            2.00354693


DFT components:
N(Alpha)           :      171.000289078945 electrons
N(Beta)            :      170.000283469280 electrons
N(Total)           :      341.000572548224 electrons
E(X)               :     -231.653740222073 Eh       
E(C)               :      -14.944053203178 Eh       
E(XC)              :     -246.597793425251 Eh       
DFET-embed. en.    :        0.000000000000 Eh       
CPCM Solvation Model Properties:
Surface-charge          :           -3.03442563
Charge-correction       :            0.00898148 Eh               0.24440 eV
Free-energy (cav+disp)  :  This term is not implemented in the current solvation scheme

---------------
SCF CONVERGENCE
---------------

  Last Energy change         ...    1.8200e-07  Tolerance :   1.0000e-08
  Last MAX-Density change    ...    0.0000e+00  Tolerance :   1.0000e-07
  Last RMS-Density change    ...    0.0000e+00  Tolerance :   5.0000e-09
  Last DIIS Error            ...    1.6658e-07  Tolerance :   5.0000e-07

             **** THE GBW FILE WAS UPDATED (cr_32w_w_freq.gbw) ****
             **** DENSITY cr_32w_w_freq.scfp WAS UPDATED ****
             **** ENERGY FILE WAS UPDATED (cr_32w_w_freq.en.tmp) ****
----------------------
UHF SPIN CONTAMINATION
----------------------

Warning: in a DFT calculation there is little theoretical justification to 
         calculate <S**2> as in Hartree-Fock theory. We will do it anyways
         but you should keep in mind that the values have only limited relevance

Expectation value of <S**2>     :     1.737645
Ideal value S*(S+1) for S=0.5   :     0.750000
Deviation                       :     0.987645

             **** THE GBW FILE WAS UPDATED (cr_32w_w_freq.gbw) ****
             **** DENSITY cr_32w_w_freq.scfp WAS UPDATED ****
----------------
ORBITAL ENERGIES
----------------
                 SPIN UP ORBITALS
  NO   OCC          E(Eh)            E(eV) 
   0   1.0000    -215.752829     -5870.9330 
   1   1.0000     -24.905286      -677.7073 
   2   1.0000     -21.197691      -576.8185 
   3   1.0000     -21.184875      -576.4698 
   4   1.0000     -21.183478      -576.4317 
   5   1.0000     -19.275670      -524.5177 
   6   1.0000     -19.262070      -524.1476 
   7   1.0000     -19.260404      -524.1022 
   8   1.0000     -19.253614      -523.9175 
   9   1.0000     -19.253087      -523.9031 
  10   1.0000     -19.252067      -523.8754 
  11   1.0000     -19.250610      -523.8357 
  12   1.0000     -19.249921      -523.8170 
  13   1.0000     -19.249648      -523.8095 
  14   1.0000     -19.248992      -523.7917 
  15   1.0000     -19.248118      -523.7679 
  16   1.0000     -19.245099      -523.6858 
  17   1.0000     -19.245085      -523.6854 
  18   1.0000     -19.243900      -523.6531 
  19   1.0000     -19.239779      -523.5410 
  20   1.0000     -19.238647      -523.5102 
  21   1.0000     -19.238217      -523.4985 
  22   1.0000     -19.237330      -523.4744 
  23   1.0000     -19.236881      -523.4621 
  24   1.0000     -19.235734      -523.4309 
  25   1.0000     -19.231987      -523.3290 
  26   1.0000     -19.226857      -523.1894 
  27   1.0000     -19.226484      -523.1792 
  28   1.0000     -19.225058      -523.1404 
  29   1.0000     -19.223643      -523.1019 
  30   1.0000     -19.222203      -523.0627 
  31   1.0000     -19.221306      -523.0383 
  32   1.0000     -19.220467      -523.0155 
  33   1.0000     -19.218098      -522.9510 
  34   1.0000     -19.214785      -522.8609 
  35   1.0000     -19.211860      -522.7813 
  36   1.0000     -19.204739      -522.5875 
  37   1.0000      -3.122030       -84.9547 
  38   1.0000      -2.095702       -57.0269 
  39   1.0000      -2.048951       -55.7548 
  40   1.0000      -2.047691       -55.7205 
  41   1.0000      -1.198535       -32.6138 
  42   1.0000      -1.190570       -32.3971 
  43   1.0000      -1.186414       -32.2840 
  44   1.0000      -1.184280       -32.2259 
  45   1.0000      -1.182218       -32.1698 
  46   1.0000      -1.180688       -32.1282 
  47   1.0000      -1.178290       -32.0629 
  48   1.0000      -1.175704       -31.9925 
  49   1.0000      -1.174444       -31.9582 
  50   1.0000      -1.172571       -31.9073 
  51   1.0000      -1.172268       -31.8990 
  52   1.0000      -1.168157       -31.7872 
  53   1.0000      -1.165805       -31.7232 
  54   1.0000      -1.163856       -31.6701 
  55   1.0000      -1.161927       -31.6176 
  56   1.0000      -1.160157       -31.5695 
  57   1.0000      -1.158255       -31.5177 
  58   1.0000      -1.156144       -31.4603 
  59   1.0000      -1.154674       -31.4203 
  60   1.0000      -1.153491       -31.3881 
  61   1.0000      -1.152250       -31.3543 
  62   1.0000      -1.151120       -31.3236 
  63   1.0000      -1.149656       -31.2837 
  64   1.0000      -1.143687       -31.1213 
  65   1.0000      -1.142904       -31.1000 
  66   1.0000      -1.140423       -31.0325 
  67   1.0000      -1.138933       -30.9919 
  68   1.0000      -1.136940       -30.9377 
  69   1.0000      -1.135322       -30.8937 
  70   1.0000      -1.129606       -30.7381 
  71   1.0000      -1.124182       -30.5905 
  72   1.0000      -1.122624       -30.5482 
  73   1.0000      -0.710746       -19.3404 
  74   1.0000      -0.700429       -19.0597 
  75   1.0000      -0.697174       -18.9711 
  76   1.0000      -0.693258       -18.8645 
  77   1.0000      -0.692643       -18.8478 
  78   1.0000      -0.684664       -18.6307 
  79   1.0000      -0.681410       -18.5421 
  80   1.0000      -0.678790       -18.4708 
  81   1.0000      -0.677538       -18.4367 
  82   1.0000      -0.676682       -18.4135 
  83   1.0000      -0.674693       -18.3593 
  84   1.0000      -0.672732       -18.3060 
  85   1.0000      -0.672493       -18.2995 
  86   1.0000      -0.671011       -18.2591 
  87   1.0000      -0.669878       -18.2283 
  88   1.0000      -0.668949       -18.2030 
  89   1.0000      -0.667920       -18.1750 
  90   1.0000      -0.665183       -18.1006 
  91   1.0000      -0.663394       -18.0519 
  92   1.0000      -0.662555       -18.0290 
  93   1.0000      -0.660841       -17.9824 
  94   1.0000      -0.660447       -17.9717 
  95   1.0000      -0.653753       -17.7895 
  96   1.0000      -0.653121       -17.7723 
  97   1.0000      -0.650899       -17.7119 
  98   1.0000      -0.649479       -17.6732 
  99   1.0000      -0.647257       -17.6128 
 100   1.0000      -0.644033       -17.5250 
 101   1.0000      -0.642732       -17.4896 
 102   1.0000      -0.641584       -17.4584 
 103   1.0000      -0.641086       -17.4448 
 104   1.0000      -0.638491       -17.3742 
 105   1.0000      -0.636266       -17.3137 
 106   1.0000      -0.617106       -16.7923 
 107   1.0000      -0.614319       -16.7165 
 108   1.0000      -0.595599       -16.2071 
 109   1.0000      -0.594206       -16.1692 
 110   1.0000      -0.587646       -15.9907 
 111   1.0000      -0.575144       -15.6505 
 112   1.0000      -0.572522       -15.5791 
 113   1.0000      -0.566398       -15.4125 
 114   1.0000      -0.562292       -15.3007 
 115   1.0000      -0.561240       -15.2721 
 116   1.0000      -0.559172       -15.2158 
 117   1.0000      -0.555188       -15.1074 
 118   1.0000      -0.551709       -15.0128 
 119   1.0000      -0.547210       -14.8903 
 120   1.0000      -0.546097       -14.8601 
 121   1.0000      -0.540886       -14.7183 
 122   1.0000      -0.534977       -14.5575 
 123   1.0000      -0.531852       -14.4724 
 124   1.0000      -0.531171       -14.4539 
 125   1.0000      -0.530423       -14.4335 
 126   1.0000      -0.524496       -14.2723 
 127   1.0000      -0.521325       -14.1860 
 128   1.0000      -0.519361       -14.1325 
 129   1.0000      -0.516375       -14.0513 
 130   1.0000      -0.515757       -14.0344 
 131   1.0000      -0.513387       -13.9700 
 132   1.0000      -0.510667       -13.8959 
 133   1.0000      -0.507809       -13.8182 
 134   1.0000      -0.503466       -13.7000 
 135   1.0000      -0.498211       -13.5570 
 136   1.0000      -0.497083       -13.5263 
 137   1.0000      -0.494664       -13.4605 
 138   1.0000      -0.491555       -13.3759 
 139   1.0000      -0.488964       -13.3054 
 140   1.0000      -0.484756       -13.1909 
 141   1.0000      -0.482653       -13.1336 
 142   1.0000      -0.471037       -12.8176 
 143   1.0000      -0.468140       -12.7387 
 144   1.0000      -0.467202       -12.7132 
 145   1.0000      -0.462846       -12.5947 
 146   1.0000      -0.462587       -12.5876 
 147   1.0000      -0.462192       -12.5769 
 148   1.0000      -0.459643       -12.5075 
 149   1.0000      -0.458203       -12.4683 
 150   1.0000      -0.457210       -12.4413 
 151   1.0000      -0.456829       -12.4309 
 152   1.0000      -0.454578       -12.3697 
 153   1.0000      -0.453756       -12.3473 
 154   1.0000      -0.452104       -12.3024 
 155   1.0000      -0.449852       -12.2411 
 156   1.0000      -0.449006       -12.2181 
 157   1.0000      -0.448437       -12.2026 
 158   1.0000      -0.446434       -12.1481 
 159   1.0000      -0.445802       -12.1309 
 160   1.0000      -0.441177       -12.0050 
 161   1.0000      -0.440328       -11.9819 
 162   1.0000      -0.436275       -11.8717 
 163   1.0000      -0.434694       -11.8286 
 164   1.0000      -0.433745       -11.8028 
 165   1.0000      -0.432297       -11.7634 
 166   1.0000      -0.429358       -11.6834 
 167   1.0000      -0.422953       -11.5091 
 168   1.0000      -0.422209       -11.4889 
 169   1.0000      -0.413412       -11.2495 
 170   1.0000      -0.407225       -11.0811 
 171   0.0000      -0.019337        -0.5262 
 172   0.0000       0.017125         0.4660 
 173   0.0000       0.025449         0.6925 
 174   0.0000       0.034704         0.9443 
 175   0.0000       0.036872         1.0033 
 176   0.0000       0.037632         1.0240 
 177   0.0000       0.039709         1.0805 
 178   0.0000       0.054070         1.4713 
 179   0.0000       0.055212         1.5024 
 180   0.0000       0.056443         1.5359 
 181   0.0000       0.060714         1.6521 
 182   0.0000       0.062495         1.7006 
 183   0.0000       0.071754         1.9525 
 184   0.0000       0.073626         2.0035 
 185   0.0000       0.075253         2.0477 
 186   0.0000       0.078289         2.1303 
 187   0.0000       0.081756         2.2247 
 188   0.0000       0.082330         2.2403 
 189   0.0000       0.083781         2.2798 
 190   0.0000       0.091337         2.4854 
 191   0.0000       0.093801         2.5525 
 192   0.0000       0.097524         2.6537 
 193   0.0000       0.100312         2.7296 
 194   0.0000       0.102764         2.7963 
 195   0.0000       0.104031         2.8308 
 196   0.0000       0.105524         2.8715 
 197   0.0000       0.110606         3.0097 
 198   0.0000       0.111053         3.0219 
 199   0.0000       0.111865         3.0440 
 200   0.0000       0.117924         3.2089 
 201   0.0000       0.120354         3.2750 
 202   0.0000       0.124174         3.3790 
 203   0.0000       0.124919         3.3992 
 204   0.0000       0.128287         3.4909 
 205   0.0000       0.129873         3.5340 
 206   0.0000       0.131761         3.5854 
 207   0.0000       0.134627         3.6634 
 208   0.0000       0.136214         3.7066 
 209   0.0000       0.137020         3.7285 
 210   0.0000       0.138261         3.7623 
 211   0.0000       0.139958         3.8084 
 212   0.0000       0.142570         3.8795 
 213   0.0000       0.144398         3.9293 
 214   0.0000       0.149221         4.0605 
 215   0.0000       0.149771         4.0755 
 216   0.0000       0.153908         4.1880 
 217   0.0000       0.155529         4.2322 
 218   0.0000       0.160890         4.3780 
 219   0.0000       0.161975         4.4076 
 220   0.0000       0.165870         4.5136 
 221   0.0000       0.165948         4.5157 
 222   0.0000       0.166823         4.5395 
 223   0.0000       0.169632         4.6159 
 224   0.0000       0.170809         4.6479 
 225   0.0000       0.172451         4.6926 
 226   0.0000       0.174051         4.7362 
 227   0.0000       0.175239         4.7685 
 228   0.0000       0.177204         4.8220 
 229   0.0000       0.179931         4.8962 
 230   0.0000       0.180596         4.9143 
 231   0.0000       0.181768         4.9462 
 232   0.0000       0.184350         5.0164 
 233   0.0000       0.186454         5.0737 
 234   0.0000       0.187083         5.0908 
 235   0.0000       0.190632         5.1874 
 236   0.0000       0.193147         5.2558 
 237   0.0000       0.194550         5.2940 
 238   0.0000       0.197507         5.3744 
 239   0.0000       0.198466         5.4005 
 240   0.0000       0.199972         5.4415 
 241   0.0000       0.201767         5.4903 
 242   0.0000       0.202897         5.5211 
 243   0.0000       0.205769         5.5993 
 244   0.0000       0.206974         5.6321 
 245   0.0000       0.209053         5.6886 
 246   0.0000       0.209349         5.6967 
 247   0.0000       0.211568         5.7571 
 248   0.0000       0.212429         5.7805 
 249   0.0000       0.214100         5.8260 
 250   0.0000       0.216173         5.8824 
 251   0.0000       0.217730         5.9247 
 252   0.0000       0.220364         5.9964 
 253   0.0000       0.221828         6.0363 
 254   0.0000       0.222082         6.0431 
 255   0.0000       0.224413         6.1066 
 256   0.0000       0.226999         6.1770 
 257   0.0000       0.227836         6.1997 
 258   0.0000       0.229612         6.2481 
 259   0.0000       0.232057         6.3146 
 260   0.0000       0.232440         6.3250 
 261   0.0000       0.235128         6.3982 
 262   0.0000       0.237352         6.4587 
 263   0.0000       0.238434         6.4881 
 264   0.0000       0.239601         6.5199 
 265   0.0000       0.239904         6.5281 
 266   0.0000       0.243126         6.6158 
 267   0.0000       0.246236         6.7004 
 268   0.0000       0.246844         6.7170 
 269   0.0000       0.248706         6.7676 
 270   0.0000       0.249552         6.7907 
 271   0.0000       0.250546         6.8177 
 272   0.0000       0.251955         6.8561 
 273   0.0000       0.253324         6.8933 
 274   0.0000       0.254854         6.9349 
 275   0.0000       0.255634         6.9562 
 276   0.0000       0.257742         7.0135 
 277   0.0000       0.260543         7.0897 
 278   0.0000       0.261377         7.1124 
 279   0.0000       0.262960         7.1555 
 280   0.0000       0.265636         7.2283 
 281   0.0000       0.265913         7.2359 
 282   0.0000       0.266892         7.2625 
 283   0.0000       0.270696         7.3660 
 284   0.0000       0.272804         7.4234 
 285   0.0000       0.273586         7.4447 
 286   0.0000       0.276070         7.5122 
 287   0.0000       0.277609         7.5541 
 288   0.0000       0.279824         7.6144 
 289   0.0000       0.281175         7.6512 
 290   0.0000       0.283169         7.7054 
 291   0.0000       0.284481         7.7411 
 292   0.0000       0.285801         7.7770 
 293   0.0000       0.286678         7.8009 
 294   0.0000       0.289410         7.8752 
 295   0.0000       0.289916         7.8890 
 296   0.0000       0.291761         7.9392 
 297   0.0000       0.295340         8.0366 
 298   0.0000       0.295898         8.0518 
 299   0.0000       0.298241         8.1156 
 300   0.0000       0.299876         8.1600 
 301   0.0000       0.301534         8.2052 
[...]
268:   3602.60   0.111770  564.84  0.009682  ( 0.082856  0.018539 -0.049729)
269:   3645.23   0.094543  477.78  0.008094  ( 0.054683  0.019446 -0.068741)
270:   3650.76   0.167211  845.02  0.014293  ( 0.025463 -0.042973  0.108619)
271:   3657.66   0.047151  238.28  0.004023  ( 0.010704 -0.062144 -0.006809)
272:   3686.80   0.027475  138.85  0.002326  (-0.009803  0.030883  0.035717)
273:   3687.98   0.050294  254.17  0.004256  ( 0.021955  0.046381 -0.040280)
274:   3695.36   0.011161   56.41  0.000943  ( 0.020305  0.012601 -0.019274)
275:   3702.96   0.148607  751.00  0.012524  ( 0.050848 -0.069144 -0.071815)
276:   3706.37   0.038629  195.21  0.003252  ( 0.047397  0.006229  0.031100)
277:   3710.71   0.011625   58.75  0.000978  ( 0.003726 -0.023981 -0.019714)
278:   3714.62   0.031301  158.18  0.002630  ( 0.040599  0.004310  0.031028)
279:   3721.19   0.022628  114.35  0.001898  ( 0.009801  0.029055 -0.030942)
280:   3751.76   0.061929  312.97  0.005151  ( 0.064551 -0.031175  0.003531)
281:   3762.48   0.027197  137.44  0.002256  (-0.038756 -0.005387  0.026920)
282:   3766.70   0.024256  122.58  0.002010  ( 0.044293  0.006871  0.000685)
283:   3768.24   0.026226  132.53  0.002172  (-0.029998 -0.016172 -0.031787)
284:   3768.64   0.041574  210.10  0.003443  ( 0.024001  0.007757  0.052975)
285:   3771.55   0.025146  127.08  0.002081  (-0.023734  0.038522  0.005776)
286:   3785.37   0.021700  109.66  0.001789  ( 0.033678  0.013329 -0.021842)
287:   3813.88   0.010972   55.45  0.000898  (-0.009802 -0.027026  0.008442)
288:   3823.82   0.034157  172.62  0.002788  (-0.014257  0.050269 -0.007576)
289:   3847.06   0.031850  160.96  0.002584  (-0.035897  0.001026 -0.035971)
290:   3917.67   0.032259  163.02  0.002570  ( 0.023418  0.030205  0.033300)

* The epsilon (eps) is given for a Dirac delta lineshape.
** The dipole moment derivative (T) already includes vibrational overlap.

The first frequency considered to be a vibration is 9
The total number of vibrations considered is 282


--------------------------
THERMOCHEMISTRY AT 298.15K
--------------------------

Temperature         ... 298.15 K
Pressure            ... 1.00 atm
Total Mass          ... 628.48 AMU

Throughout the following assumptions are being made:
  (1) The electronic state is orbitally nondegenerate
      but the spin degeneracy is treated
  (2) There are no thermally accessible electronically excited states
  (3) Hindered rotations indicated by low frequency modes are not
      treated as such but are treated as vibrations and this may
      cause some error
  (4) All equations used are the standard statistical mechanics
      equations for an ideal gas
  (5) All vibrations are strictly harmonic

freq.      23.96  E(vib)   ...       0.56 
freq.      27.90  E(vib)   ...       0.55 
freq.      29.37  E(vib)   ...       0.55 
freq.      38.15  E(vib)   ...       0.54 
freq.      39.17  E(vib)   ...       0.54 
freq.      44.26  E(vib)   ...       0.53 
freq.      47.79  E(vib)   ...       0.53 
freq.      48.84  E(vib)   ...       0.53 
freq.      50.72  E(vib)   ...       0.52 
freq.      52.98  E(vib)   ...       0.52 
freq.      56.71  E(vib)   ...       0.52 
freq.      60.09  E(vib)   ...       0.51 
freq.      60.44  E(vib)   ...       0.51 
freq.      62.58  E(vib)   ...       0.51 
freq.      66.29  E(vib)   ...       0.50 
freq.      67.77  E(vib)   ...       0.50 
freq.      71.20  E(vib)   ...       0.50 
freq.      72.69  E(vib)   ...       0.49 
freq.      74.29  E(vib)   ...       0.49 
freq.      77.51  E(vib)   ...       0.49 
freq.      79.13  E(vib)   ...       0.49 
freq.      81.47  E(vib)   ...       0.48 
freq.      83.36  E(vib)   ...       0.48 
freq.      86.61  E(vib)   ...       0.48 
freq.      87.56  E(vib)   ...       0.48 
freq.      89.66  E(vib)   ...       0.47 
freq.      94.25  E(vib)   ...       0.47 
freq.     101.40  E(vib)   ...       0.46 
freq.     102.75  E(vib)   ...       0.46 
freq.     107.93  E(vib)   ...       0.45 
freq.     114.11  E(vib)   ...       0.44 
freq.     122.64  E(vib)   ...       0.43 
freq.     127.48  E(vib)   ...       0.43 
freq.     130.48  E(vib)   ...       0.43 
freq.     136.15  E(vib)   ...       0.42 
freq.     137.21  E(vib)   ...       0.42 
freq.     139.05  E(vib)   ...       0.42 
freq.     145.60  E(vib)   ...       0.41 
freq.     153.92  E(vib)   ...       0.40 
freq.     156.78  E(vib)   ...       0.40 
freq.     159.84  E(vib)   ...       0.39 
freq.     162.48  E(vib)   ...       0.39 
freq.     169.59  E(vib)   ...       0.38 
freq.     174.16  E(vib)   ...       0.38 
freq.     176.84  E(vib)   ...       0.38 
freq.     180.30  E(vib)   ...       0.37 
freq.     185.83  E(vib)   ...       0.37 
freq.     188.03  E(vib)   ...       0.36 
freq.     190.12  E(vib)   ...       0.36 
freq.     193.41  E(vib)   ...       0.36 
freq.     196.44  E(vib)   ...       0.36 
freq.     199.12  E(vib)   ...       0.35 
freq.     200.55  E(vib)   ...       0.35 
freq.     206.12  E(vib)   ...       0.35 
freq.     206.61  E(vib)   ...       0.35 
freq.     208.25  E(vib)   ...       0.34 
freq.     215.57  E(vib)   ...       0.34 
freq.     219.87  E(vib)   ...       0.33 
freq.     220.25  E(vib)   ...       0.33 
freq.     222.10  E(vib)   ...       0.33 
freq.     225.07  E(vib)   ...       0.33 
freq.     229.19  E(vib)   ...       0.32 
freq.     236.38  E(vib)   ...       0.32 
freq.     242.81  E(vib)   ...       0.31 
freq.     248.08  E(vib)   ...       0.31 
freq.     251.15  E(vib)   ...       0.30 
freq.     254.87  E(vib)   ...       0.30 
freq.     257.63  E(vib)   ...       0.30 
freq.     259.36  E(vib)   ...       0.30 
freq.     262.18  E(vib)   ...       0.29 
freq.     265.52  E(vib)   ...       0.29 
freq.     270.04  E(vib)   ...       0.29 
freq.     274.20  E(vib)   ...       0.28 
freq.     281.91  E(vib)   ...       0.28 
freq.     283.69  E(vib)   ...       0.28 
freq.     288.66  E(vib)   ...       0.27 
freq.     294.01  E(vib)   ...       0.27 
freq.     300.72  E(vib)   ...       0.26 
freq.     318.48  E(vib)   ...       0.25 
freq.     321.60  E(vib)   ...       0.25 
freq.     334.15  E(vib)   ...       0.24 
freq.     336.15  E(vib)   ...       0.24 
freq.     347.25  E(vib)   ...       0.23 
freq.     353.31  E(vib)   ...       0.22 
freq.     356.64  E(vib)   ...       0.22 
freq.     358.02  E(vib)   ...       0.22 
freq.     361.96  E(vib)   ...       0.22 
freq.     364.68  E(vib)   ...       0.22 
freq.     368.14  E(vib)   ...       0.21 
freq.     375.02  E(vib)   ...       0.21 
freq.     375.90  E(vib)   ...       0.21 
freq.     379.07  E(vib)   ...       0.21 
freq.     384.81  E(vib)   ...       0.20 
freq.     390.63  E(vib)   ...       0.20 
freq.     440.47  E(vib)   ...       0.17 
freq.     446.40  E(vib)   ...       0.17 
freq.     449.12  E(vib)   ...       0.17 
freq.     452.48  E(vib)   ...       0.16 
freq.     455.29  E(vib)   ...       0.16 
freq.     457.93  E(vib)   ...       0.16 
freq.     464.52  E(vib)   ...       0.16 
freq.     468.88  E(vib)   ...       0.16 
freq.     481.46  E(vib)   ...       0.15 
freq.     492.09  E(vib)   ...       0.14 
freq.     493.99  E(vib)   ...       0.14 
freq.     498.09  E(vib)   ...       0.14 
freq.     504.32  E(vib)   ...       0.14 
freq.     505.64  E(vib)   ...       0.14 
freq.     509.64  E(vib)   ...       0.14 
freq.     515.10  E(vib)   ...       0.13 
freq.     523.08  E(vib)   ...       0.13 
freq.     527.22  E(vib)   ...       0.13 
freq.     532.87  E(vib)   ...       0.13 
freq.     534.67  E(vib)   ...       0.13 
freq.     537.11  E(vib)   ...       0.12 
freq.     542.49  E(vib)   ...       0.12 
freq.     545.75  E(vib)   ...       0.12 
freq.     548.88  E(vib)   ...       0.12 
freq.     551.06  E(vib)   ...       0.12 
freq.     556.37  E(vib)   ...       0.12 
freq.     558.80  E(vib)   ...       0.12 
freq.     571.78  E(vib)   ...       0.11 
freq.     573.87  E(vib)   ...       0.11 
freq.     577.92  E(vib)   ...       0.11 
freq.     585.88  E(vib)   ...       0.11 
freq.     594.15  E(vib)   ...       0.10 
freq.     600.90  E(vib)   ...       0.10 
freq.     607.25  E(vib)   ...       0.10 
freq.     614.47  E(vib)   ...       0.10 
freq.     615.04  E(vib)   ...       0.10 
freq.     625.46  E(vib)   ...       0.09 
freq.     633.77  E(vib)   ...       0.09 
freq.     637.59  E(vib)   ...       0.09 
freq.     642.48  E(vib)   ...       0.09 
freq.     643.97  E(vib)   ...       0.09 
freq.     649.05  E(vib)   ...       0.08 
freq.     660.05  E(vib)   ...       0.08 
freq.     664.60  E(vib)   ...       0.08 
freq.     676.79  E(vib)   ...       0.08 
freq.     688.74  E(vib)   ...       0.07 
freq.     692.73  E(vib)   ...       0.07 
freq.     695.14  E(vib)   ...       0.07 
freq.     705.56  E(vib)   ...       0.07 
freq.     716.10  E(vib)   ...       0.07 
freq.     726.52  E(vib)   ...       0.06 
freq.     729.20  E(vib)   ...       0.06 
freq.     731.52  E(vib)   ...       0.06 
freq.     739.73  E(vib)   ...       0.06 
freq.     747.45  E(vib)   ...       0.06 
freq.     758.25  E(vib)   ...       0.06 
freq.     765.21  E(vib)   ...       0.06 
freq.     767.74  E(vib)   ...       0.06 
freq.     779.58  E(vib)   ...       0.05 
freq.     782.06  E(vib)   ...       0.05 
freq.     791.34  E(vib)   ...       0.05 
freq.     796.98  E(vib)   ...       0.05 
freq.     804.72  E(vib)   ...       0.05 
freq.     821.75  E(vib)   ...       0.05 
freq.     829.84  E(vib)   ...       0.04 
freq.     830.93  E(vib)   ...       0.04 
freq.     843.10  E(vib)   ...       0.04 
freq.     859.13  E(vib)   ...       0.04 
freq.     868.36  E(vib)   ...       0.04 
freq.     872.26  E(vib)   ...       0.04 
freq.     879.43  E(vib)   ...       0.04 
freq.     883.90  E(vib)   ...       0.04 
freq.     906.79  E(vib)   ...       0.03 
freq.     910.64  E(vib)   ...       0.03 
freq.     914.82  E(vib)   ...       0.03 
freq.     920.68  E(vib)   ...       0.03 
freq.     926.61  E(vib)   ...       0.03 
freq.     935.96  E(vib)   ...       0.03 
freq.     964.15  E(vib)   ...       0.03 
freq.     965.48  E(vib)   ...       0.03 
freq.     991.31  E(vib)   ...       0.02 
freq.     993.43  E(vib)   ...       0.02 
freq.    1021.65  E(vib)   ...       0.02 
freq.    1035.38  E(vib)   ...       0.02 
freq.    1041.32  E(vib)   ...       0.02 
freq.    1056.00  E(vib)   ...       0.02 
freq.    1066.08  E(vib)   ...       0.02 
freq.    1103.48  E(vib)   ...       0.02 
freq.    1121.18  E(vib)   ...       0.01 
freq.    1139.88  E(vib)   ...       0.01 
freq.    1152.70  E(vib)   ...       0.01 
freq.    1206.37  E(vib)   ...       0.01 
freq.    1603.37  E(vib)   ...       0.00 
freq.    1605.74  E(vib)   ...       0.00 
freq.    1607.17  E(vib)   ...       0.00 
freq.    1612.19  E(vib)   ...       0.00 
freq.    1621.35  E(vib)   ...       0.00 
freq.    1621.96  E(vib)   ...       0.00 
freq.    1626.98  E(vib)   ...       0.00 
freq.    1630.35  E(vib)   ...       0.00 
freq.    1633.61  E(vib)   ...       0.00 
freq.    1635.41  E(vib)   ...       0.00 
freq.    1639.81  E(vib)   ...       0.00 
freq.    1641.95  E(vib)   ...       0.00 
freq.    1643.58  E(vib)   ...       0.00 
freq.    1647.46  E(vib)   ...       0.00 
freq.    1650.43  E(vib)   ...       0.00 
freq.    1650.57  E(vib)   ...       0.00 
freq.    1656.68  E(vib)   ...       0.00 
freq.    1661.44  E(vib)   ...       0.00 
freq.    1662.50  E(vib)   ...       0.00 
freq.    1662.71  E(vib)   ...       0.00 
freq.    1672.59  E(vib)   ...       0.00 
freq.    1679.81  E(vib)   ...       0.00 
freq.    1683.39  E(vib)   ...       0.00 
freq.    1686.89  E(vib)   ...       0.00 
freq.    1691.63  E(vib)   ...       0.00 
freq.    1695.16  E(vib)   ...       0.00 
freq.    1696.61  E(vib)   ...       0.00 
freq.    1697.61  E(vib)   ...       0.00 
freq.    1699.96  E(vib)   ...       0.00 
freq.    1708.52  E(vib)   ...       0.00 
freq.    1732.43  E(vib)   ...       0.00 
freq.    1743.65  E(vib)   ...       0.00 
freq.    2380.13  E(vib)   ...       0.00 
freq.    2661.09  E(vib)   ...       0.00 
freq.    2750.55  E(vib)   ...       0.00 
freq.    2777.23  E(vib)   ...       0.00 
freq.    2802.39  E(vib)   ...       0.00 
freq.    2998.97  E(vib)   ...       0.00 
freq.    3008.48  E(vib)   ...       0.00 
freq.    3033.16  E(vib)   ...       0.00 
freq.    3035.21  E(vib)   ...       0.00 
freq.    3040.34  E(vib)   ...       0.00 
freq.    3055.22  E(vib)   ...       0.00 
freq.    3062.81  E(vib)   ...       0.00 
freq.    3100.77  E(vib)   ...       0.00 
freq.    3191.58  E(vib)   ...       0.00 
freq.    3229.72  E(vib)   ...       0.00 
freq.    3238.16  E(vib)   ...       0.00 
freq.    3266.61  E(vib)   ...       0.00 
freq.    3287.63  E(vib)   ...       0.00 
freq.    3293.28  E(vib)   ...       0.00 
freq.    3295.26  E(vib)   ...       0.00 
freq.    3299.01  E(vib)   ...       0.00 
freq.    3327.05  E(vib)   ...       0.00 
freq.    3362.98  E(vib)   ...       0.00 
freq.    3383.24  E(vib)   ...       0.00 
freq.    3398.64  E(vib)   ...       0.00 
freq.    3417.53  E(vib)   ...       0.00 
freq.    3424.43  E(vib)   ...       0.00 
freq.    3440.19  E(vib)   ...       0.00 
freq.    3469.85  E(vib)   ...       0.00 
freq.    3477.52  E(vib)   ...       0.00 
freq.    3478.70  E(vib)   ...       0.00 
freq.    3490.01  E(vib)   ...       0.00 
freq.    3497.85  E(vib)   ...       0.00 
freq.    3502.28  E(vib)   ...       0.00 
freq.    3513.39  E(vib)   ...       0.00 
freq.    3532.01  E(vib)   ...       0.00 
freq.    3541.44  E(vib)   ...       0.00 
freq.    3560.80  E(vib)   ...       0.00 
freq.    3561.80  E(vib)   ...       0.00 
freq.    3572.12  E(vib)   ...       0.00 
freq.    3594.01  E(vib)   ...       0.00 
freq.    3602.60  E(vib)   ...       0.00 
freq.    3645.23  E(vib)   ...       0.00 
freq.    3650.76  E(vib)   ...       0.00 
freq.    3657.66  E(vib)   ...       0.00 
freq.    3686.80  E(vib)   ...       0.00 
freq.    3687.98  E(vib)   ...       0.00 
freq.    3695.36  E(vib)   ...       0.00 
freq.    3702.96  E(vib)   ...       0.00 
freq.    3706.37  E(vib)   ...       0.00 
freq.    3710.71  E(vib)   ...       0.00 
freq.    3714.62  E(vib)   ...       0.00 
freq.    3721.19  E(vib)   ...       0.00 
freq.    3751.76  E(vib)   ...       0.00 
freq.    3762.48  E(vib)   ...       0.00 
freq.    3766.70  E(vib)   ...       0.00 
freq.    3768.24  E(vib)   ...       0.00 
freq.    3768.64  E(vib)   ...       0.00 
freq.    3771.55  E(vib)   ...       0.00 
freq.    3785.37  E(vib)   ...       0.00 
freq.    3813.88  E(vib)   ...       0.00 
freq.    3823.82  E(vib)   ...       0.00 
freq.    3847.06  E(vib)   ...       0.00 
freq.    3917.67  E(vib)   ...       0.00 

------------
INNER ENERGY
------------

The inner energy is: U= E(el) + E(ZPE) + E(vib) + E(rot) + E(trans)
    E(el)   - is the total energy from the electronic structure calculation
              = E(kin-el) + E(nuc-el) + E(el-el) + E(nuc-nuc)
    E(ZPE)  - the the zero temperature vibrational energy from the frequency calculation
    E(vib)  - the the finite temperature correction to E(ZPE) due to population
              of excited vibrational states
    E(rot)  - is the rotational thermal energy
    E(trans)- is the translational thermal energy

Summary of contributions to the inner energy U:
Electronic energy                ...  -3491.94141199 Eh
Zero point energy                ...      0.81180971 Eh     509.42 kcal/mol
Thermal vibrational correction   ...      0.06811418 Eh      42.74 kcal/mol
Thermal rotational correction    ...      0.00141627 Eh       0.89 kcal/mol
Thermal translational correction ...      0.00141627 Eh       0.89 kcal/mol
-----------------------------------------------------------------------
Total thermal energy                  -3491.05865556 Eh


Summary of corrections to the electronic energy:
(perhaps to be used in another calculation)
Total thermal correction                  0.07094672 Eh      44.52 kcal/mol
Non-thermal (ZPE) correction              0.81180971 Eh     509.42 kcal/mol
-----------------------------------------------------------------------
Total correction                          0.88275643 Eh     553.94 kcal/mol


--------
ENTHALPY
--------

The enthalpy is H = U + kB*T
                kB is Boltzmann's constant
Total free energy                 ...  -3491.05865556 Eh 
Thermal Enthalpy correction       ...      0.00094421 Eh       0.59 kcal/mol
-----------------------------------------------------------------------
Total Enthalpy                    ...  -3491.05771136 Eh


Note: Only C1 symmetry has been detected, increase convergence thresholds 
      if your molecule has a higher symmetry. Symmetry factor of 1.0 is   
      used for the rotational entropy correction. 
 

Note: Rotational entropy computed according to Herzberg 
Infrared and Raman Spectra, Chapter V,1, Van Nostrand Reinhold, 1945 
Point Group:  C1, Symmetry Number:   1  
Rotational constants in cm-1:     0.002781     0.002316     0.001967 

Vibrational entropy computed according to the QRRHO of S. Grimme
Chem.Eur.J. 2012 18 9955


-------
ENTROPY
-------

The entropy contributions are T*S = T*(S(el)+S(vib)+S(rot)+S(trans))
     S(el)   - electronic entropy
     S(vib)  - vibrational entropy
     S(rot)  - rotational entropy
     S(trans)- translational entropy
The entropies will be listed as multiplied by the temperature to get
units of energy

Electronic entropy                ...      0.00065446 Eh      0.41 kcal/mol
Vibrational entropy               ...      0.12267495 Eh     76.98 kcal/mol
Rotational entropy                ...      0.01809522 Eh     11.35 kcal/mol
Translational entropy             ...      0.02147454 Eh     13.48 kcal/mol
-----------------------------------------------------------------------
Final entropy term                ...      0.16289917 Eh    102.22 kcal/mol

In case the symmetry of your molecule has not been determined correctly
or in case you have a reason to use a different symmetry number we print 
out the resulting rotational entropy values for sn=1,12 :
 --------------------------------------------------------
|  sn= 1 | S(rot)=       0.01809522 Eh     11.35 kcal/mol|
|  sn= 2 | S(rot)=       0.01744077 Eh     10.94 kcal/mol|
|  sn= 3 | S(rot)=       0.01705793 Eh     10.70 kcal/mol|
|  sn= 4 | S(rot)=       0.01678631 Eh     10.53 kcal/mol|
|  sn= 5 | S(rot)=       0.01657562 Eh     10.40 kcal/mol|
|  sn= 6 | S(rot)=       0.01640348 Eh     10.29 kcal/mol|
|  sn= 7 | S(rot)=       0.01625793 Eh     10.20 kcal/mol|
|  sn= 8 | S(rot)=       0.01613185 Eh     10.12 kcal/mol|
|  sn= 9 | S(rot)=       0.01602065 Eh     10.05 kcal/mol|
|  sn=10 | S(rot)=       0.01592117 Eh      9.99 kcal/mol|
|  sn=11 | S(rot)=       0.01583118 Eh      9.93 kcal/mol|
|  sn=12 | S(rot)=       0.01574902 Eh      9.88 kcal/mol|
 --------------------------------------------------------


-------------------
GIBBS FREE ENERGY
-------------------

The Gibbs free energy is G = H - T*S

Total enthalpy                    ...  -3491.05771136 Eh 
Total entropy correction          ...     -0.16289917 Eh   -102.22 kcal/mol
-----------------------------------------------------------------------
Final Gibbs free energy         ...  -3491.22061053 Eh

For completeness - the Gibbs free energy minus the electronic energy
G-E(el)                           ...      0.72080147 Eh    452.31 kcal/mol


Timings for individual modules:

Sum of individual times         ...   190913.541 sec (=3181.892 min)
GTO integral calculation        ...        3.136 sec (=   0.052 min)   0.0 %
SCF iterations                  ...     1085.179 sec (=  18.086 min)   0.6 %
Analytical frequency calculation...   189825.226 sec (=3163.754 min)  99.4 %
                             ****ORCA TERMINATED NORMALLY****
TOTAL RUN TIME: 2 days 5 hours 1 minutes 56 seconds 155 msec
